<?xml version="1.0" encoding="UTF-8"?>

<!-- generated on 2023-04-24 14:31:08 by Eclipse SUMO sumo Version 1.14.1
<configuration xmlns:xsi="http://www.w3.org/2001/XMLSchema-instance" xsi:noNamespaceSchemaLocation="http://sumo.dlr.de/xsd/sumoConfiguration.xsd">

    <input>
        <net-file value="001/../COL.net.xml"/>
        <route-files value="001/d_file_80.odtrips_001.rou.xml"/>
        <additional-files value="001/../edgedata.add.xml"/>
    </input>

    <output>
        <output-prefix value="001/"/>
        <summary-output value="001/../summary_001.xml"/>
        <tripinfo-output value="001/../tripinfo_001.xml"/>
    </output>

    <time>
        <begin value="0"/>
    </time>

    <processing>
        <route-steps value="200"/>
        <no-internal-links value="false"/>
        <time-to-teleport value="300"/>
        <time-to-teleport.highways value="0"/>
        <eager-insert value="false"/>
    </processing>

    <report>
        <verbose value="true"/>
        <no-warnings value="false"/>
        <log value="001/../iteration_001.sumo.log"/>
        <no-step-log value="true"/>
    </report>

    <random_number>
        <random value="false"/>
    </random_number>

</configuration>
-->

<tripinfos xmlns:xsi="http://www.w3.org/2001/XMLSchema-instance" xsi:noNamespaceSchemaLocation="http://sumo.dlr.de/xsd/tripinfo_file.xsd">
    <tripinfo id="9" depart="19.00" departLane="537856043_0" departPos="0.64" departSpeed="0.00" departDelay="0.61" arrival="50.00" arrivalLane="405576227_1" arrivalPos="0.20" arrivalSpeed="2.94" duration="31.00" routeLength="175.55" waitingTime="0.00" waitingCount="0" stopTime="0.00" timeLoss="10.10" rerouteNo="0" devices="tripinfo_9" vType="DEFAULT_VEHTYPE" speedFactor="1.05" vaporized=""/>
    <tripinfo id="1428" depart="60.00" departLane="-849359570#2_0" departPos="5.10" departSpeed="9.13" departDelay="0.15" arrival="79.00" arrivalLane="977104959#1_0" arrivalPos="55.51" arrivalSpeed="9.68" duration="19.00" routeLength="175.69" waitingTime="0.00" waitingCount="0" stopTime="0.00" timeLoss="1.55" rerouteNo="0" devices="tripinfo_1428" vType="DEFAULT_VEHTYPE" speedFactor="1.17" vaporized=""/>
    <tripinfo id="748" depart="19.00" departLane="4223971#2_0" departPos="5.10" departSpeed="7.92" departDelay="0.03" arrival="91.00" arrivalLane="4223961#4_0" arrivalPos="35.73" arrivalSpeed="7.63" duration="72.00" routeLength="494.39" waitingTime="0.00" waitingCount="0" stopTime="0.00" timeLoss="7.96" rerouteNo="0" devices="tripinfo_748" vType="DEFAULT_VEHTYPE" speedFactor="0.89" vaporized=""/>
    <tripinfo id="906" depart="93.00" departLane="732154817#4_0" departPos="5.10" departSpeed="7.60" departDelay="0.49" arrival="97.00" arrivalLane="732154817#4_0" arrivalPos="29.73" arrivalSpeed="6.49" duration="4.00" routeLength="24.63" waitingTime="0.00" waitingCount="0" stopTime="0.00" timeLoss="0.47" rerouteNo="0" devices="tripinfo_906" vType="DEFAULT_VEHTYPE" speedFactor="0.85" vaporized=""/>
    <tripinfo id="1772" depart="26.00" departLane="-849359570#2_0" departPos="5.10" departSpeed="8.86" departDelay="0.14" arrival="101.00" arrivalLane="230192881#0_0" arrivalPos="38.16" arrivalSpeed="7.69" duration="75.00" routeLength="568.61" waitingTime="0.00" waitingCount="0" stopTime="0.00" timeLoss="9.60" rerouteNo="0" devices="tripinfo_1772" vType="DEFAULT_VEHTYPE" speedFactor="0.99" vaporized=""/>
    <tripinfo id="1947" depart="56.00" departLane="4223961#4_0" departPos="5.10" departSpeed="10.12" departDelay="0.87" arrival="101.00" arrivalLane="4223971#2_0" arrivalPos="17.43" arrivalSpeed="8.96" duration="45.00" routeLength="389.89" waitingTime="0.00" waitingCount="0" stopTime="0.00" timeLoss="5.13" rerouteNo="0" devices="tripinfo_1947" vType="DEFAULT_VEHTYPE" speedFactor="1.13" vaporized=""/>
    <tripinfo id="959" depart="121.00" departLane="977104959#1_0" departPos="5.10" departSpeed="9.14" departDelay="0.65" arrival="127.00" arrivalLane="977104959#1_0" arrivalPos="55.51" arrivalSpeed="8.67" duration="6.00" routeLength="50.41" waitingTime="0.00" waitingCount="0" stopTime="0.00" timeLoss="0.40" rerouteNo="0" devices="tripinfo_959" vType="DEFAULT_VEHTYPE" speedFactor="1.02" vaporized=""/>
    <tripinfo id="1749" depart="35.00" departLane="-849359570#2_0" departPos="5.10" departSpeed="8.42" departDelay="0.00" arrival="144.00" arrivalLane="4223971#2_0" arrivalPos="17.43" arrivalSpeed="7.20" duration="109.00" routeLength="684.76" waitingTime="11.00" waitingCount="2" stopTime="0.00" timeLoss="26.11" rerouteNo="0" devices="tripinfo_1749" vType="DEFAULT_VEHTYPE" speedFactor="0.94" vaporized=""/>
    <tripinfo id="570" depart="47.00" departLane="4223971#2_0" departPos="5.10" departSpeed="8.41" departDelay="0.10" arrival="160.00" arrivalLane="977104959#1_0" arrivalPos="55.51" arrivalSpeed="8.36" duration="113.00" routeLength="852.63" waitingTime="0.00" waitingCount="0" stopTime="0.00" timeLoss="13.59" rerouteNo="0" devices="tripinfo_570" vType="DEFAULT_VEHTYPE" speedFactor="0.97" vaporized=""/>
    <tripinfo id="1349" depart="17.00" departLane="732154817#4_0" departPos="5.10" departSpeed="7.43" departDelay="0.92" arrival="170.00" arrivalLane="-849359570#2_0" arrivalPos="24.96" arrivalSpeed="7.27" duration="153.00" routeLength="925.32" waitingTime="12.00" waitingCount="1" stopTime="0.00" timeLoss="27.26" rerouteNo="0" devices="tripinfo_1349" vType="DEFAULT_VEHTYPE" speedFactor="0.83" vaporized=""/>
    <tripinfo id="141" depart="40.00" departLane="977104959#1_0" departPos="5.10" departSpeed="9.10" departDelay="0.97" arrival="172.00" arrivalLane="732154817#4_0" arrivalPos="29.73" arrivalSpeed="8.06" duration="132.00" routeLength="1009.68" waitingTime="2.00" waitingCount="1" stopTime="0.00" timeLoss="19.64" rerouteNo="0" devices="tripinfo_141" vType="DEFAULT_VEHTYPE" speedFactor="1.02" vaporized=""/>
    <tripinfo id="1832" depart="122.00" departLane="4223961#4_0" departPos="5.10" departSpeed="8.70" departDelay="0.09" arrival="174.00" arrivalLane="4223971#2_0" arrivalPos="17.43" arrivalSpeed="8.50" duration="52.00" routeLength="389.89" waitingTime="0.00" waitingCount="0" stopTime="0.00" timeLoss="5.14" rerouteNo="0" devices="tripinfo_1832" vType="DEFAULT_VEHTYPE" speedFactor="0.97" vaporized=""/>
    <tripinfo id="542" depart="55.00" departLane="230192881#0_0" departPos="5.10" departSpeed="8.48" departDelay="0.53" arrival="177.00" arrivalLane="977104959#1_0" arrivalPos="55.51" arrivalSpeed="7.27" duration="122.00" routeLength="751.75" waitingTime="17.00" waitingCount="2" stopTime="0.00" timeLoss="31.85" rerouteNo="0" devices="tripinfo_542" vType="DEFAULT_VEHTYPE" speedFactor="0.95" vaporized=""/>
    <tripinfo id="507" depart="106.00" departLane="230192881#0_0" departPos="5.10" departSpeed="8.67" departDelay="0.82" arrival="181.00" arrivalLane="-1068540402#0_0" arrivalPos="43.71" arrivalSpeed="7.78" duration="75.00" routeLength="410.58" waitingTime="20.00" waitingCount="1" stopTime="0.00" timeLoss="27.13" rerouteNo="0" devices="tripinfo_507" vType="DEFAULT_VEHTYPE" speedFactor="0.97" vaporized=""/>
    <tripinfo id="417" depart="78.00" departLane="230192881#0_0" departPos="5.10" departSpeed="9.28" departDelay="0.11" arrival="182.00" arrivalLane="732154817#4_0" arrivalPos="29.73" arrivalSpeed="8.41" duration="104.00" routeLength="784.23" waitingTime="1.00" waitingCount="1" stopTime="0.00" timeLoss="17.37" rerouteNo="0" devices="tripinfo_417" vType="DEFAULT_VEHTYPE" speedFactor="1.04" vaporized=""/>
    <tripinfo id="694" depart="109.00" departLane="230192881#0_0" departPos="5.10" departSpeed="8.82" departDelay="0.75" arrival="193.00" arrivalLane="38900541#4_1" arrivalPos="28.49" arrivalSpeed="8.51" duration="84.00" routeLength="477.29" waitingTime="20.00" waitingCount="1" stopTime="0.00" timeLoss="29.39" rerouteNo="0" devices="tripinfo_694" vType="DEFAULT_VEHTYPE" speedFactor="0.99" vaporized=""/>
    <tripinfo id="1869" depart="57.00" departLane="-849359570#2_0" departPos="5.10" departSpeed="10.32" departDelay="0.73" arrival="200.00" arrivalLane="4223971#2_0" arrivalPos="17.43" arrivalSpeed="9.31" duration="143.00" routeLength="684.76" waitingTime="55.00" waitingCount="3" stopTime="0.00" timeLoss="75.17" rerouteNo="0" devices="tripinfo_1869" vType="DEFAULT_VEHTYPE" speedFactor="1.15" vaporized=""/>
    <tripinfo id="1242" depart="50.00" departLane="732154817#4_0" departPos="5.10" departSpeed="7.38" departDelay="0.95" arrival="205.00" arrivalLane="-849359570#2_0" arrivalPos="24.96" arrivalSpeed="6.42" duration="155.00" routeLength="927.56" waitingTime="6.00" waitingCount="2" stopTime="0.00" timeLoss="27.83" rerouteNo="0" devices="tripinfo_1242" vType="DEFAULT_VEHTYPE" speedFactor="0.83" vaporized=""/>
    <tripinfo id="1152" depart="64.00" departLane="977104959#1_0" departPos="5.10" departSpeed="8.89" departDelay="0.82" arrival="206.00" arrivalLane="4223971#2_0" arrivalPos="17.43" arrivalSpeed="7.83" duration="142.00" routeLength="872.35" waitingTime="17.00" waitingCount="1" stopTime="0.00" timeLoss="41.43" rerouteNo="0" devices="tripinfo_1152" vType="DEFAULT_VEHTYPE" speedFactor="0.99" vaporized=""/>
    <tripinfo id="189" depart="89.00" departLane="732154817#4_0" departPos="5.10" departSpeed="9.73" departDelay="0.40" arrival="207.00" arrivalLane="-849359570#2_0" arrivalPos="24.96" arrivalSpeed="8.45" duration="118.00" routeLength="927.56" waitingTime="0.00" waitingCount="0" stopTime="0.00" timeLoss="21.13" rerouteNo="0" devices="tripinfo_189" vType="DEFAULT_VEHTYPE" speedFactor="1.09" vaporized=""/>
    <tripinfo id="525" depart="38.00" departLane="230192881#0_0" departPos="5.10" departSpeed="10.35" departDelay="0.30" arrival="213.00" arrivalLane="-4254213#3_0" arrivalPos="19.14" arrivalSpeed="9.32" duration="175.00" routeLength="1390.66" waitingTime="12.00" waitingCount="2" stopTime="0.00" timeLoss="38.04" rerouteNo="0" devices="tripinfo_525" vType="DEFAULT_VEHTYPE" speedFactor="1.16" vaporized=""/>
    <tripinfo id="674" depart="34.00" departLane="468181430#2_0" departPos="5.10" departSpeed="7.85" departDelay="0.46" arrival="214.00" arrivalLane="-849359570#2_0" arrivalPos="24.96" arrivalSpeed="7.11" duration="180.00" routeLength="1057.03" waitingTime="26.00" waitingCount="2" stopTime="0.00" timeLoss="44.73" rerouteNo="0" devices="tripinfo_674" vType="DEFAULT_VEHTYPE" speedFactor="0.88" vaporized=""/>
    <tripinfo id="596" depart="71.00" departLane="4223971#2_0" departPos="5.10" departSpeed="8.41" departDelay="0.28" arrival="226.00" arrivalLane="977104959#1_0" arrivalPos="55.51" arrivalSpeed="9.08" duration="155.00" routeLength="852.63" waitingTime="45.00" waitingCount="2" stopTime="0.00" timeLoss="66.92" rerouteNo="0" devices="tripinfo_596" vType="DEFAULT_VEHTYPE" speedFactor="1.10" vaporized=""/>
    <tripinfo id="1005" depart="91.00" departLane="977104959#1_0" departPos="5.10" departSpeed="6.02" departDelay="1.86" arrival="226.00" arrivalLane="537856043_0" arrivalPos="0.64" arrivalSpeed="7.06" duration="135.00" routeLength="904.63" waitingTime="3.00" waitingCount="1" stopTime="0.00" timeLoss="21.76" rerouteNo="0" devices="tripinfo_1005" vType="DEFAULT_VEHTYPE" speedFactor="0.90" vaporized=""/>
    <tripinfo id="1142" depart="24.00" departLane="732154817#4_0" departPos="5.10" departSpeed="5.18" departDelay="0.11" arrival="227.00" arrivalLane="405576227_1" arrivalPos="0.20" arrivalSpeed="3.61" duration="203.00" routeLength="1543.14" waitingTime="9.00" waitingCount="2" stopTime="0.00" timeLoss="35.98" rerouteNo="0" devices="tripinfo_1142" vType="DEFAULT_VEHTYPE" speedFactor="1.05" vaporized=""/>
    <tripinfo id="1382" depart="101.00" departLane="977104959#1_0" departPos="5.10" departSpeed="9.80" departDelay="0.73" arrival="227.00" arrivalLane="38900541#4_1" arrivalPos="28.49" arrivalSpeed="9.00" duration="126.00" routeLength="1081.87" waitingTime="0.00" waitingCount="0" stopTime="0.00" timeLoss="13.92" rerouteNo="0" devices="tripinfo_1382" vType="DEFAULT_VEHTYPE" speedFactor="1.10" vaporized=""/>
    <tripinfo id="917" depart="221.00" departLane="977104959#1_0" departPos="5.10" departSpeed="6.98" departDelay="2.77" arrival="229.00" arrivalLane="977104959#1_0" arrivalPos="55.51" arrivalSpeed="6.56" duration="8.00" routeLength="50.41" waitingTime="0.00" waitingCount="0" stopTime="0.00" timeLoss="0.98" rerouteNo="0" devices="tripinfo_917" vType="DEFAULT_VEHTYPE" speedFactor="0.87" vaporized=""/>
    <tripinfo id="1213" depart="220.00" departLane="-1068540402#0_0" departPos="5.10" departSpeed="9.82" departDelay="0.97" arrival="234.00" arrivalLane="38900541#4_1" arrivalPos="28.49" arrivalSpeed="9.32" duration="14.00" routeLength="105.32" waitingTime="0.00" waitingCount="0" stopTime="0.00" timeLoss="2.68" rerouteNo="0" devices="tripinfo_1213" vType="DEFAULT_VEHTYPE" speedFactor="1.10" vaporized=""/>
    <tripinfo id="1692" depart="102.00" departLane="4260217#1_0" departPos="5.10" departSpeed="5.27" departDelay="0.13" arrival="241.00" arrivalLane="4223971#2_0" arrivalPos="17.43" arrivalSpeed="8.69" duration="139.00" routeLength="714.85" waitingTime="43.00" waitingCount="1" stopTime="0.00" timeLoss="57.65" rerouteNo="0" devices="tripinfo_1692" vType="DEFAULT_VEHTYPE" speedFactor="1.00" vaporized=""/>
    <tripinfo id="110" depart="82.00" departLane="732154817#4_0" departPos="5.10" departSpeed="9.33" departDelay="0.37" arrival="245.00" arrivalLane="-4254213#3_0" arrivalPos="19.14" arrivalSpeed="8.95" duration="163.00" routeLength="1279.17" waitingTime="5.00" waitingCount="1" stopTime="0.00" timeLoss="23.82" rerouteNo="0" devices="tripinfo_110" vType="DEFAULT_VEHTYPE" speedFactor="1.04" vaporized=""/>
    <tripinfo id="1907" depart="104.00" departLane="4260217#1_0" departPos="5.10" departSpeed="0.75" departDelay="0.53" arrival="249.00" arrivalLane="4223971#2_0" arrivalPos="17.43" arrivalSpeed="7.71" duration="145.00" routeLength="714.85" waitingTime="39.00" waitingCount="1" stopTime="0.00" timeLoss="54.28" rerouteNo="0" devices="tripinfo_1907" vType="DEFAULT_VEHTYPE" speedFactor="0.90" vaporized=""/>
    <tripinfo id="1325" depart="56.00" departLane="977104959#1_0" departPos="5.10" departSpeed="8.33" departDelay="0.61" arrival="251.00" arrivalLane="4260217#1_0" arrivalPos="11.14" arrivalSpeed="7.10" duration="195.00" routeLength="1138.26" waitingTime="29.00" waitingCount="3" stopTime="0.00" timeLoss="56.74" rerouteNo="0" devices="tripinfo_1325" vType="DEFAULT_VEHTYPE" speedFactor="0.93" vaporized=""/>
    <tripinfo id="943" depart="128.00" departLane="-4254213#3_0" departPos="5.10" departSpeed="9.44" departDelay="0.72" arrival="251.00" arrivalLane="732154817#4_0" arrivalPos="29.73" arrivalSpeed="9.44" duration="123.00" routeLength="844.11" waitingTime="5.00" waitingCount="1" stopTime="0.00" timeLoss="30.98" rerouteNo="0" devices="tripinfo_943" vType="DEFAULT_VEHTYPE" speedFactor="1.06" vaporized=""/>
    <tripinfo id="1868" depart="66.00" departLane="38900541#4_0" departPos="5.10" departSpeed="9.12" departDelay="0.77" arrival="258.00" arrivalLane="4223971#2_0" arrivalPos="17.43" arrivalSpeed="8.89" duration="192.00" routeLength="1079.96" waitingTime="41.00" waitingCount="2" stopTime="0.00" timeLoss="72.42" rerouteNo="0" devices="tripinfo_1868" vType="DEFAULT_VEHTYPE" speedFactor="1.02" vaporized=""/>
    <tripinfo id="647" depart="146.00" departLane="230192881#0_0" departPos="5.10" departSpeed="9.01" departDelay="0.14" arrival="264.00" arrivalLane="977104959#1_0" arrivalPos="55.51" arrivalSpeed="7.76" duration="118.00" routeLength="817.58" waitingTime="11.00" waitingCount="1" stopTime="0.00" timeLoss="25.28" rerouteNo="0" devices="tripinfo_647" vType="DEFAULT_VEHTYPE" speedFactor="1.01" vaporized=""/>
    <tripinfo id="366" depart="108.00" departLane="405576227_0" departPos="0.20" departSpeed="9.08" departDelay="0.07" arrival="270.00" arrivalLane="977104959#1_0" arrivalPos="55.51" arrivalSpeed="8.92" duration="162.00" routeLength="1172.32" waitingTime="13.00" waitingCount="2" stopTime="0.00" timeLoss="32.29" rerouteNo="0" devices="tripinfo_366" vType="DEFAULT_VEHTYPE" speedFactor="1.02" vaporized=""/>
    <tripinfo id="1252" depart="136.00" departLane="732154817#4_0" departPos="5.10" departSpeed="9.23" departDelay="0.05" arrival="271.00" arrivalLane="-849359570#2_0" arrivalPos="24.96" arrivalSpeed="9.06" duration="135.00" routeLength="925.32" waitingTime="19.00" waitingCount="2" stopTime="0.00" timeLoss="34.05" rerouteNo="0" devices="tripinfo_1252" vType="DEFAULT_VEHTYPE" speedFactor="1.03" vaporized=""/>
    <tripinfo id="1385" depart="33.00" departLane="-4254213#3_0" departPos="5.10" departSpeed="8.29" departDelay="0.86" arrival="272.00" arrivalLane="38900541#4_1" arrivalPos="28.49" arrivalSpeed="7.30" duration="239.00" routeLength="1509.91" waitingTime="30.00" waitingCount="2" stopTime="0.00" timeLoss="54.90" rerouteNo="0" devices="tripinfo_1385" vType="DEFAULT_VEHTYPE" speedFactor="0.93" vaporized=""/>
    <tripinfo id="192" depart="226.00" departLane="977104959#1_0" departPos="5.10" departSpeed="8.42" departDelay="0.02" arrival="275.00" arrivalLane="-849359570#2_0" arrivalPos="24.96" arrivalSpeed="8.31" duration="49.00" routeLength="266.71" waitingTime="4.00" waitingCount="1" stopTime="0.00" timeLoss="15.29" rerouteNo="0" devices="tripinfo_192" vType="DEFAULT_VEHTYPE" speedFactor="0.94" vaporized=""/>
    <tripinfo id="1287" depart="37.00" departLane="-4254213#3_0" departPos="5.10" departSpeed="8.37" departDelay="0.65" arrival="276.00" arrivalLane="38900541#4_1" arrivalPos="28.49" arrivalSpeed="7.60" duration="239.00" routeLength="1509.91" waitingTime="27.00" waitingCount="2" stopTime="0.00" timeLoss="56.98" rerouteNo="0" devices="tripinfo_1287" vType="DEFAULT_VEHTYPE" speedFactor="0.94" vaporized=""/>
    <tripinfo id="919" depart="139.00" departLane="977104959#1_0" departPos="5.10" departSpeed="8.78" departDelay="0.26" arrival="278.00" arrivalLane="732154817#4_0" arrivalPos="29.73" arrivalSpeed="7.99" duration="139.00" routeLength="1009.68" waitingTime="1.00" waitingCount="1" stopTime="0.00" timeLoss="22.52" rerouteNo="0" devices="tripinfo_919" vType="DEFAULT_VEHTYPE" speedFactor="0.98" vaporized=""/>
    <tripinfo id="244" depart="12.00" departLane="537856043_0" departPos="0.64" departSpeed="0.00" departDelay="0.88" arrival="279.00" arrivalLane="38900541#4_1" arrivalPos="28.49" arrivalSpeed="9.40" duration="267.00" routeLength="1872.35" waitingTime="26.00" waitingCount="4" stopTime="0.00" timeLoss="71.67" rerouteNo="0" devices="tripinfo_244" vType="DEFAULT_VEHTYPE" speedFactor="1.08" vaporized=""/>
    <tripinfo id="1674" depart="54.00" departLane="4260217#1_0" departPos="5.10" departSpeed="5.27" departDelay="0.06" arrival="279.00" arrivalLane="4223971#2_0" arrivalPos="17.43" arrivalSpeed="8.20" duration="225.00" routeLength="925.43" waitingTime="79.00" waitingCount="5" stopTime="0.00" timeLoss="110.17" rerouteNo="0" devices="tripinfo_1674" vType="DEFAULT_VEHTYPE" speedFactor="0.92" vaporized=""/>
    <tripinfo id="1049" depart="60.00" departLane="-1068540402#0_0" departPos="5.10" departSpeed="8.99" departDelay="0.93" arrival="281.00" arrivalLane="4223971#2_0" arrivalPos="17.43" arrivalSpeed="8.20" duration="221.00" routeLength="1041.03" waitingTime="60.00" waitingCount="4" stopTime="0.00" timeLoss="104.37" rerouteNo="0" devices="tripinfo_1049" vType="DEFAULT_VEHTYPE" speedFactor="1.01" vaporized=""/>
    <tripinfo id="1444" depart="52.00" departLane="38900541#4_0" departPos="5.10" departSpeed="7.80" departDelay="0.67" arrival="282.00" arrivalLane="732154817#4_0" arrivalPos="29.73" arrivalSpeed="7.41" duration="230.00" routeLength="1196.53" waitingTime="39.00" waitingCount="5" stopTime="0.00" timeLoss="75.28" rerouteNo="0" devices="tripinfo_1444" vType="DEFAULT_VEHTYPE" speedFactor="0.87" vaporized=""/>
    <tripinfo id="5" depart="56.00" departLane="3076785#8_0" departPos="5.10" departSpeed="10.54" departDelay="0.35" arrival="283.00" arrivalLane="4223971#2_0" arrivalPos="17.43" arrivalSpeed="10.06" duration="227.00" routeLength="1945.30" waitingTime="5.00" waitingCount="1" stopTime="0.00" timeLoss="39.55" rerouteNo="0" devices="tripinfo_5" vType="DEFAULT_VEHTYPE" speedFactor="1.18" vaporized=""/>
    <tripinfo id="1426" depart="25.00" departLane="4223961#4_0" departPos="5.10" departSpeed="9.88" departDelay="0.56" arrival="285.00" arrivalLane="732154817#4_0" arrivalPos="29.73" arrivalSpeed="9.15" duration="260.00" routeLength="1601.80" waitingTime="42.00" waitingCount="5" stopTime="0.00" timeLoss="97.64" rerouteNo="0" devices="tripinfo_1426" vType="DEFAULT_VEHTYPE" speedFactor="1.12" vaporized=""/>
    <tripinfo id="128" depart="117.00" departLane="732154817#4_0" departPos="5.10" departSpeed="9.30" departDelay="0.41" arrival="287.00" arrivalLane="-4254213#3_0" arrivalPos="19.14" arrivalSpeed="8.81" duration="170.00" routeLength="1279.17" waitingTime="10.00" waitingCount="1" stopTime="0.00" timeLoss="29.84" rerouteNo="0" devices="tripinfo_128" vType="DEFAULT_VEHTYPE" speedFactor="1.04" vaporized=""/>
    <tripinfo id="282" depart="3.00" departLane="4223971#2_0" departPos="5.10" departSpeed="8.39" departDelay="0.17" arrival="290.00" arrivalLane="732154817#4_0" arrivalPos="29.73" arrivalSpeed="8.22" duration="287.00" routeLength="1516.42" waitingTime="73.00" waitingCount="3" stopTime="0.00" timeLoss="103.63" rerouteNo="0" devices="tripinfo_282" vType="DEFAULT_VEHTYPE" speedFactor="0.94" vaporized=""/>
    <tripinfo id="1202" depart="105.00" departLane="977104959#1_0" departPos="5.10" departSpeed="9.15" departDelay="0.44" arrival="294.00" arrivalLane="38900541#4_0" arrivalPos="28.49" arrivalSpeed="8.16" duration="189.00" routeLength="1081.87" waitingTime="39.00" waitingCount="3" stopTime="0.00" timeLoss="69.37" rerouteNo="0" devices="tripinfo_1202" vType="DEFAULT_VEHTYPE" speedFactor="1.02" vaporized=""/>
    <tripinfo id="1842" depart="155.00" departLane="4223961#4_0" departPos="5.10" departSpeed="8.64" departDelay="0.43" arrival="295.00" arrivalLane="468181430#2_1" arrivalPos="24.92" arrivalSpeed="8.14" duration="140.00" routeLength="978.78" waitingTime="3.00" waitingCount="2" stopTime="0.00" timeLoss="24.55" rerouteNo="0" devices="tripinfo_1842" vType="DEFAULT_VEHTYPE" speedFactor="0.97" vaporized=""/>
    <tripinfo id="19" depart="164.00" departLane="3076785#8_0" departPos="5.10" departSpeed="9.32" departDelay="0.98" arrival="300.00" arrivalLane="405576227_1" arrivalPos="0.20" arrivalSpeed="8.72" duration="136.00" routeLength="1072.03" waitingTime="0.00" waitingCount="0" stopTime="0.00" timeLoss="17.77" rerouteNo="0" devices="tripinfo_19" vType="DEFAULT_VEHTYPE" speedFactor="1.04" vaporized=""/>
    <tripinfo id="502" depart="201.00" departLane="230192881#0_0" departPos="5.10" departSpeed="9.52" departDelay="0.57" arrival="302.00" arrivalLane="-1068540402#0_0" arrivalPos="43.71" arrivalSpeed="9.33" duration="101.00" routeLength="410.58" waitingTime="44.00" waitingCount="3" stopTime="0.00" timeLoss="57.58" rerouteNo="0" devices="tripinfo_502" vType="DEFAULT_VEHTYPE" speedFactor="1.06" vaporized=""/>
    <tripinfo id="1512" depart="130.00" departLane="-849359570#2_0" departPos="5.10" departSpeed="8.81" departDelay="1.39" arrival="305.00" arrivalLane="732154817#4_0" arrivalPos="29.73" arrivalSpeed="8.74" duration="175.00" routeLength="983.41" waitingTime="36.00" waitingCount="2" stopTime="0.00" timeLoss="60.88" rerouteNo="0" devices="tripinfo_1512" vType="DEFAULT_VEHTYPE" speedFactor="0.98" vaporized=""/>
    <tripinfo id="1335" depart="109.00" departLane="977104959#1_0" departPos="5.10" departSpeed="8.38" departDelay="0.24" arrival="307.00" arrivalLane="4223961#4_0" arrivalPos="35.73" arrivalSpeed="7.57" duration="198.00" routeLength="1090.31" waitingTime="31.00" waitingCount="3" stopTime="0.00" timeLoss="65.94" rerouteNo="0" devices="tripinfo_1335" vType="DEFAULT_VEHTYPE" speedFactor="0.94" vaporized=""/>
    <tripinfo id="566" depart="168.00" departLane="4223971#2_0" departPos="5.10" departSpeed="8.41" departDelay="0.24" arrival="309.00" arrivalLane="977104959#1_0" arrivalPos="55.51" arrivalSpeed="8.90" duration="141.00" routeLength="904.35" waitingTime="8.00" waitingCount="4" stopTime="0.00" timeLoss="39.24" rerouteNo="0" devices="tripinfo_566" vType="DEFAULT_VEHTYPE" speedFactor="1.01" vaporized=""/>
    <tripinfo id="222" depart="102.00" departLane="537856043_0" departPos="0.64" departSpeed="6.59" departDelay="0.57" arrival="311.00" arrivalLane="4223961#4_0" arrivalPos="35.73" arrivalSpeed="8.74" duration="209.00" routeLength="1241.23" waitingTime="39.00" waitingCount="4" stopTime="0.00" timeLoss="69.83" rerouteNo="0" devices="tripinfo_222" vType="DEFAULT_VEHTYPE" speedFactor="1.00" vaporized=""/>
    <tripinfo id="771" depart="48.00" departLane="468181430#2_0" departPos="5.10" departSpeed="7.95" departDelay="0.05" arrival="313.00" arrivalLane="4260217#1_0" arrivalPos="11.14" arrivalSpeed="6.74" duration="265.00" routeLength="1440.15" waitingTime="54.00" waitingCount="3" stopTime="0.00" timeLoss="83.32" rerouteNo="0" devices="tripinfo_771" vType="DEFAULT_VEHTYPE" speedFactor="0.89" vaporized=""/>
    <tripinfo id="136" depart="180.00" departLane="3076785#8_0" departPos="5.10" departSpeed="8.24" departDelay="0.48" arrival="314.00" arrivalLane="732154817#4_0" arrivalPos="29.73" arrivalSpeed="8.04" duration="134.00" routeLength="939.60" waitingTime="5.00" waitingCount="1" stopTime="0.00" timeLoss="18.72" rerouteNo="0" devices="tripinfo_136" vType="DEFAULT_VEHTYPE" speedFactor="0.92" vaporized=""/>
    <tripinfo id="961" depart="306.00" departLane="977104959#1_0" departPos="5.10" departSpeed="5.88" departDelay="3.37" arrival="314.00" arrivalLane="977104959#1_0" arrivalPos="55.51" arrivalSpeed="6.88" duration="8.00" routeLength="50.41" waitingTime="0.00" waitingCount="0" stopTime="0.00" timeLoss="2.13" rerouteNo="0" devices="tripinfo_961" vType="DEFAULT_VEHTYPE" speedFactor="0.99" vaporized=""/>
    <tripinfo id="828" depart="89.00" departLane="468181430#2_0" departPos="5.10" departSpeed="8.92" departDelay="0.12" arrival="315.00" arrivalLane="4260217#1_0" arrivalPos="11.14" arrivalSpeed="7.75" duration="226.00" routeLength="1440.15" waitingTime="28.00" waitingCount="5" stopTime="0.00" timeLoss="63.90" rerouteNo="0" devices="tripinfo_828" vType="DEFAULT_VEHTYPE" speedFactor="1.00" vaporized=""/>
    <tripinfo id="63" depart="1.00" departLane="3076785#8_0" departPos="5.10" departSpeed="9.48" departDelay="0.21" arrival="316.00" arrivalLane="4223971#2_0" arrivalPos="17.43" arrivalSpeed="9.08" duration="315.00" routeLength="2109.02" waitingTime="43.00" waitingCount="4" stopTime="0.00" timeLoss="89.17" rerouteNo="0" devices="tripinfo_63" vType="DEFAULT_VEHTYPE" speedFactor="1.06" vaporized=""/>
    <tripinfo id="1906" depart="184.00" departLane="-849359570#2_0" departPos="5.10" departSpeed="9.45" departDelay="0.79" arrival="323.00" arrivalLane="405576227_1" arrivalPos="0.20" arrivalSpeed="3.82" duration="139.00" routeLength="1018.49" waitingTime="3.00" waitingCount="2" stopTime="0.00" timeLoss="29.49" rerouteNo="0" devices="tripinfo_1906" vType="DEFAULT_VEHTYPE" speedFactor="1.06" vaporized=""/>
    <tripinfo id="1742" depart="229.00" departLane="-849359570#2_0" departPos="5.10" departSpeed="6.50" departDelay="1.58" arrival="323.00" arrivalLane="230192881#0_0" arrivalPos="38.16" arrivalSpeed="9.81" duration="94.00" routeLength="580.50" waitingTime="13.00" waitingCount="2" stopTime="0.00" timeLoss="33.24" rerouteNo="0" devices="tripinfo_1742" vType="DEFAULT_VEHTYPE" speedFactor="1.10" vaporized=""/>
    <tripinfo id="1290" depart="308.00" departLane="-1068540402#0_0" departPos="5.10" departSpeed="8.80" departDelay="0.64" arrival="323.00" arrivalLane="38900541#4_1" arrivalPos="28.49" arrivalSpeed="7.92" duration="15.00" routeLength="105.32" waitingTime="0.00" waitingCount="0" stopTime="0.00" timeLoss="2.56" rerouteNo="0" devices="tripinfo_1290" vType="DEFAULT_VEHTYPE" speedFactor="0.98" vaporized=""/>
    <tripinfo id="97" depart="323.00" departLane="732154817#4_0" departPos="5.10" departSpeed="9.74" departDelay="0.18" arrival="326.00" arrivalLane="732154817#4_0" arrivalPos="29.73" arrivalSpeed="8.59" duration="3.00" routeLength="24.63" waitingTime="0.00" waitingCount="0" stopTime="0.00" timeLoss="0.24" rerouteNo="0" devices="tripinfo_97" vType="DEFAULT_VEHTYPE" speedFactor="1.09" vaporized=""/>
    <tripinfo id="62" depart="208.00" departLane="977104959#1_0" departPos="5.10" departSpeed="8.66" departDelay="0.28" arrival="327.00" arrivalLane="230192881#0_0" arrivalPos="38.16" arrivalSpeed="7.87" duration="119.00" routeLength="756.20" waitingTime="8.00" waitingCount="2" stopTime="0.00" timeLoss="29.45" rerouteNo="0" devices="tripinfo_62" vType="DEFAULT_VEHTYPE" speedFactor="0.97" vaporized=""/>
    <tripinfo id="1597" depart="22.00" departLane="4223961#4_0" departPos="5.10" departSpeed="7.66" departDelay="0.24" arrival="329.00" arrivalLane="732154817#4_0" arrivalPos="29.73" arrivalSpeed="6.88" duration="307.00" routeLength="1772.41" waitingTime="24.00" waitingCount="4" stopTime="0.00" timeLoss="72.02" rerouteNo="0" devices="tripinfo_1597" vType="DEFAULT_VEHTYPE" speedFactor="0.86" vaporized=""/>
    <tripinfo id="1757" depart="111.00" departLane="4260217#1_0" departPos="5.10" departSpeed="0.88" departDelay="5.76" arrival="329.00" arrivalLane="230192881#0_0" arrivalPos="38.16" arrivalSpeed="9.36" duration="218.00" routeLength="1313.56" waitingTime="52.00" waitingCount="2" stopTime="0.00" timeLoss="80.34" rerouteNo="0" devices="tripinfo_1757" vType="DEFAULT_VEHTYPE" speedFactor="1.08" vaporized=""/>
    <tripinfo id="518" depart="5.00" departLane="405576227_0" departPos="0.20" departSpeed="9.03" departDelay="0.23" arrival="331.00" arrivalLane="-4254213#3_0" arrivalPos="19.14" arrivalSpeed="9.01" duration="326.00" routeLength="2408.46" waitingTime="17.00" waitingCount="3" stopTime="0.00" timeLoss="56.90" rerouteNo="0" devices="tripinfo_518" vType="DEFAULT_VEHTYPE" speedFactor="1.01" vaporized=""/>