<?xml version="1.0" encoding="UTF-8"?>

<!-- generated on 2023-04-24 14:30:58 by Eclipse SUMO sumo Version 1.14.1
<configuration xmlns:xsi="http://www.w3.org/2001/XMLSchema-instance" xsi:noNamespaceSchemaLocation="http://sumo.dlr.de/xsd/sumoConfiguration.xsd">

    <input>
        <net-file value="000/../COL.net.xml"/>
        <route-files value="000/d_file_80.odtrips_000.rou.xml"/>
        <additional-files value="000/../edgedata.add.xml"/>
    </input>

    <output>
        <output-prefix value="000/"/>
        <summary-output value="000/../summary_000.xml"/>
        <tripinfo-output value="000/../tripinfo_000.xml"/>
    </output>

    <time>
        <begin value="0"/>
    </time>

    <processing>
        <route-steps value="200"/>
        <no-internal-links value="false"/>
        <time-to-teleport value="300"/>
        <time-to-teleport.highways value="0"/>
        <eager-insert value="false"/>
    </processing>

    <report>
        <verbose value="true"/>
        <no-warnings value="false"/>
        <log value="000/../iteration_000.sumo.log"/>
        <no-step-log value="true"/>
    </report>

    <random_number>
        <random value="false"/>
    </random_number>

</configuration>
-->

<tripinfos xmlns:xsi="http://www.w3.org/2001/XMLSchema-instance" xsi:noNamespaceSchemaLocation="http://sumo.dlr.de/xsd/tripinfo_file.xsd">
    <tripinfo id="9" depart="19.00" departLane="537856043_0" departPos="0.64" departSpeed="0.00" departDelay="0.61" arrival="50.00" arrivalLane="405576227_1" arrivalPos="0.20" arrivalSpeed="3.69" duration="31.00" routeLength="175.55" waitingTime="1.00" waitingCount="1" stopTime="0.00" timeLoss="10.17" rerouteNo="0" devices="tripinfo_9" vType="DEFAULT_VEHTYPE" speedFactor="1.05" vaporized=""/>
    <tripinfo id="1428" depart="60.00" departLane="-849359570#2_0" departPos="5.10" departSpeed="9.13" departDelay="0.15" arrival="79.00" arrivalLane="977104959#1_0" arrivalPos="55.51" arrivalSpeed="9.32" duration="19.00" routeLength="175.69" waitingTime="0.00" waitingCount="0" stopTime="0.00" timeLoss="1.57" rerouteNo="0" devices="tripinfo_1428" vType="DEFAULT_VEHTYPE" speedFactor="1.17" vaporized=""/>
    <tripinfo id="748" depart="19.00" departLane="4223971#2_0" departPos="5.10" departSpeed="7.92" departDelay="0.03" arrival="91.00" arrivalLane="4223961#4_0" arrivalPos="35.73" arrivalSpeed="7.71" duration="72.00" routeLength="494.39" waitingTime="0.00" waitingCount="0" stopTime="0.00" timeLoss="8.22" rerouteNo="0" devices="tripinfo_748" vType="DEFAULT_VEHTYPE" speedFactor="0.89" vaporized=""/>
    <tripinfo id="906" depart="93.00" departLane="732154817#4_0" departPos="5.10" departSpeed="7.60" departDelay="0.49" arrival="97.00" arrivalLane="732154817#4_0" arrivalPos="29.73" arrivalSpeed="6.49" duration="4.00" routeLength="24.63" waitingTime="0.00" waitingCount="0" stopTime="0.00" timeLoss="0.47" rerouteNo="0" devices="tripinfo_906" vType="DEFAULT_VEHTYPE" speedFactor="0.85" vaporized=""/>
    <tripinfo id="1947" depart="56.00" departLane="4223961#4_0" departPos="5.10" departSpeed="10.12" departDelay="0.87" arrival="102.00" arrivalLane="4223971#2_0" arrivalPos="17.43" arrivalSpeed="8.89" duration="46.00" routeLength="389.89" waitingTime="0.00" waitingCount="0" stopTime="0.00" timeLoss="5.41" rerouteNo="0" devices="tripinfo_1947" vType="DEFAULT_VEHTYPE" speedFactor="1.13" vaporized=""/>
    <tripinfo id="1772" depart="26.00" departLane="-849359570#2_0" departPos="5.10" departSpeed="8.86" departDelay="0.14" arrival="126.00" arrivalLane="230192881#0_0" arrivalPos="38.16" arrivalSpeed="8.59" duration="100.00" routeLength="580.50" waitingTime="20.00" waitingCount="2" stopTime="0.00" timeLoss="33.14" rerouteNo="0" devices="tripinfo_1772" vType="DEFAULT_VEHTYPE" speedFactor="0.99" vaporized=""/>
    <tripinfo id="959" depart="121.00" departLane="977104959#1_0" departPos="5.10" departSpeed="9.14" departDelay="0.65" arrival="127.00" arrivalLane="977104959#1_0" arrivalPos="55.51" arrivalSpeed="8.67" duration="6.00" routeLength="50.41" waitingTime="0.00" waitingCount="0" stopTime="0.00" timeLoss="0.40" rerouteNo="0" devices="tripinfo_959" vType="DEFAULT_VEHTYPE" speedFactor="1.02" vaporized=""/>
    <tripinfo id="1749" depart="35.00" departLane="-849359570#2_0" departPos="5.10" departSpeed="8.42" departDelay="0.00" arrival="149.00" arrivalLane="4223971#2_0" arrivalPos="17.43" arrivalSpeed="7.78" duration="114.00" routeLength="684.76" waitingTime="13.00" waitingCount="3" stopTime="0.00" timeLoss="30.81" rerouteNo="0" devices="tripinfo_1749" vType="DEFAULT_VEHTYPE" speedFactor="0.94" vaporized=""/>
    <tripinfo id="570" depart="47.00" departLane="4223971#2_0" departPos="5.10" departSpeed="8.41" departDelay="0.10" arrival="161.00" arrivalLane="977104959#1_0" arrivalPos="55.51" arrivalSpeed="7.82" duration="114.00" routeLength="852.63" waitingTime="0.00" waitingCount="0" stopTime="0.00" timeLoss="14.16" rerouteNo="0" devices="tripinfo_570" vType="DEFAULT_VEHTYPE" speedFactor="0.97" vaporized=""/>
    <tripinfo id="1349" depart="17.00" departLane="732154817#4_0" departPos="5.10" departSpeed="7.43" departDelay="0.92" arrival="171.00" arrivalLane="-849359570#2_0" arrivalPos="24.96" arrivalSpeed="6.58" duration="154.00" routeLength="925.32" waitingTime="12.00" waitingCount="1" stopTime="0.00" timeLoss="28.07" rerouteNo="0" devices="tripinfo_1349" vType="DEFAULT_VEHTYPE" speedFactor="0.83" vaporized=""/>
    <tripinfo id="141" depart="40.00" departLane="977104959#1_0" departPos="5.10" departSpeed="9.10" departDelay="0.97" arrival="173.00" arrivalLane="732154817#4_0" arrivalPos="29.73" arrivalSpeed="8.25" duration="133.00" routeLength="1009.68" waitingTime="3.00" waitingCount="1" stopTime="0.00" timeLoss="20.60" rerouteNo="0" devices="tripinfo_141" vType="DEFAULT_VEHTYPE" speedFactor="1.02" vaporized=""/>
    <tripinfo id="1832" depart="122.00" departLane="4223961#4_0" departPos="5.10" departSpeed="8.70" departDelay="0.09" arrival="174.00" arrivalLane="4223971#2_0" arrivalPos="17.43" arrivalSpeed="8.25" duration="52.00" routeLength="389.89" waitingTime="0.00" waitingCount="0" stopTime="0.00" timeLoss="5.68" rerouteNo="0" devices="tripinfo_1832" vType="DEFAULT_VEHTYPE" speedFactor="0.97" vaporized=""/>
    <tripinfo id="417" depart="78.00" departLane="230192881#0_0" departPos="5.10" departSpeed="9.28" departDelay="0.11" arrival="181.00" arrivalLane="732154817#4_0" arrivalPos="29.73" arrivalSpeed="8.08" duration="103.00" routeLength="784.23" waitingTime="0.00" waitingCount="0" stopTime="0.00" timeLoss="16.24" rerouteNo="0" devices="tripinfo_417" vType="DEFAULT_VEHTYPE" speedFactor="1.04" vaporized=""/>
    <tripinfo id="507" depart="106.00" departLane="230192881#0_0" departPos="5.10" departSpeed="8.67" departDelay="0.82" arrival="181.00" arrivalLane="-1068540402#0_0" arrivalPos="43.71" arrivalSpeed="7.65" duration="75.00" routeLength="410.58" waitingTime="19.00" waitingCount="1" stopTime="0.00" timeLoss="27.19" rerouteNo="0" devices="tripinfo_507" vType="DEFAULT_VEHTYPE" speedFactor="0.97" vaporized=""/>
    <tripinfo id="1674" depart="54.00" departLane="4260217#1_0" departPos="5.10" departSpeed="5.27" departDelay="0.06" arrival="188.00" arrivalLane="4223971#2_0" arrivalPos="17.43" arrivalSpeed="6.98" duration="134.00" routeLength="714.85" waitingTime="32.00" waitingCount="1" stopTime="0.00" timeLoss="45.66" rerouteNo="0" devices="tripinfo_1674" vType="DEFAULT_VEHTYPE" speedFactor="0.92" vaporized=""/>
    <tripinfo id="1869" depart="57.00" departLane="-849359570#2_0" departPos="5.10" departSpeed="10.32" departDelay="0.73" arrival="191.00" arrivalLane="4223971#2_0" arrivalPos="17.43" arrivalSpeed="10.26" duration="134.00" routeLength="684.76" waitingTime="51.00" waitingCount="2" stopTime="0.00" timeLoss="65.88" rerouteNo="0" devices="tripinfo_1869" vType="DEFAULT_VEHTYPE" speedFactor="1.15" vaporized=""/>
    <tripinfo id="542" depart="55.00" departLane="230192881#0_0" departPos="5.10" departSpeed="8.48" departDelay="0.53" arrival="193.00" arrivalLane="977104959#1_0" arrivalPos="55.51" arrivalSpeed="7.57" duration="138.00" routeLength="751.75" waitingTime="27.00" waitingCount="3" stopTime="0.00" timeLoss="47.57" rerouteNo="0" devices="tripinfo_542" vType="DEFAULT_VEHTYPE" speedFactor="0.95" vaporized=""/>
    <tripinfo id="694" depart="109.00" departLane="230192881#0_0" departPos="5.10" departSpeed="8.82" departDelay="0.75" arrival="194.00" arrivalLane="38900541#4_1" arrivalPos="28.49" arrivalSpeed="7.54" duration="85.00" routeLength="477.29" waitingTime="19.00" waitingCount="1" stopTime="0.00" timeLoss="29.70" rerouteNo="0" devices="tripinfo_694" vType="DEFAULT_VEHTYPE" speedFactor="0.99" vaporized=""/>
    <tripinfo id="674" depart="34.00" departLane="468181430#2_0" departPos="5.10" departSpeed="7.85" departDelay="0.46" arrival="195.00" arrivalLane="-849359570#2_0" arrivalPos="24.96" arrivalSpeed="6.84" duration="161.00" routeLength="1057.03" waitingTime="8.00" waitingCount="1" stopTime="0.00" timeLoss="25.08" rerouteNo="0" devices="tripinfo_674" vType="DEFAULT_VEHTYPE" speedFactor="0.88" vaporized=""/>
    <tripinfo id="1152" depart="64.00" departLane="977104959#1_0" departPos="5.10" departSpeed="8.89" departDelay="0.82" arrival="201.00" arrivalLane="4223971#2_0" arrivalPos="17.43" arrivalSpeed="8.61" duration="137.00" routeLength="872.35" waitingTime="14.00" waitingCount="1" stopTime="0.00" timeLoss="37.09" rerouteNo="0" devices="tripinfo_1152" vType="DEFAULT_VEHTYPE" speedFactor="0.99" vaporized=""/>
    <tripinfo id="1242" depart="50.00" departLane="732154817#4_0" departPos="5.10" departSpeed="7.38" departDelay="0.95" arrival="206.00" arrivalLane="-849359570#2_0" arrivalPos="24.96" arrivalSpeed="6.42" duration="156.00" routeLength="925.32" waitingTime="13.00" waitingCount="1" stopTime="0.00" timeLoss="29.65" rerouteNo="0" devices="tripinfo_1242" vType="DEFAULT_VEHTYPE" speedFactor="0.83" vaporized=""/>
    <tripinfo id="525" depart="38.00" departLane="230192881#0_0" departPos="5.10" departSpeed="10.35" departDelay="0.30" arrival="212.00" arrivalLane="-4254213#3_0" arrivalPos="19.14" arrivalSpeed="10.08" duration="174.00" routeLength="1390.66" waitingTime="13.00" waitingCount="2" stopTime="0.00" timeLoss="37.30" rerouteNo="0" devices="tripinfo_525" vType="DEFAULT_VEHTYPE" speedFactor="1.16" vaporized=""/>
    <tripinfo id="1005" depart="90.00" departLane="977104959#1_0" departPos="5.10" departSpeed="4.88" departDelay="0.86" arrival="227.00" arrivalLane="537856043_0" arrivalPos="0.64" arrivalSpeed="7.28" duration="137.00" routeLength="904.63" waitingTime="3.00" waitingCount="1" stopTime="0.00" timeLoss="23.41" rerouteNo="0" devices="tripinfo_1005" vType="DEFAULT_VEHTYPE" speedFactor="0.90" vaporized=""/>
    <tripinfo id="917" depart="219.00" departLane="977104959#1_0" departPos="5.10" departSpeed="7.74" departDelay="0.77" arrival="227.00" arrivalLane="977104959#1_0" arrivalPos="55.51" arrivalSpeed="7.42" duration="8.00" routeLength="50.41" waitingTime="0.00" waitingCount="0" stopTime="0.00" timeLoss="0.70" rerouteNo="0" devices="tripinfo_917" vType="DEFAULT_VEHTYPE" speedFactor="0.87" vaporized=""/>
    <tripinfo id="1142" depart="24.00" departLane="732154817#4_0" departPos="5.10" departSpeed="5.18" departDelay="0.11" arrival="228.00" arrivalLane="405576227_1" arrivalPos="0.20" arrivalSpeed="3.13" duration="204.00" routeLength="1543.14" waitingTime="9.00" waitingCount="2" stopTime="0.00" timeLoss="37.02" rerouteNo="0" devices="tripinfo_1142" vType="DEFAULT_VEHTYPE" speedFactor="1.05" vaporized=""/>
    <tripinfo id="110" depart="82.00" departLane="732154817#4_0" departPos="5.10" departSpeed="9.33" departDelay="0.37" arrival="235.00" arrivalLane="-4254213#3_0" arrivalPos="19.14" arrivalSpeed="8.30" duration="153.00" routeLength="1279.17" waitingTime="0.00" waitingCount="0" stopTime="0.00" timeLoss="14.10" rerouteNo="0" devices="tripinfo_110" vType="DEFAULT_VEHTYPE" speedFactor="1.04" vaporized=""/>
    <tripinfo id="1213" depart="220.00" departLane="-1068540402#0_0" departPos="5.10" departSpeed="9.82" departDelay="0.97" arrival="235.00" arrivalLane="38900541#4_1" arrivalPos="28.49" arrivalSpeed="8.79" duration="15.00" routeLength="105.32" waitingTime="0.00" waitingCount="0" stopTime="0.00" timeLoss="3.08" rerouteNo="0" devices="tripinfo_1213" vType="DEFAULT_VEHTYPE" speedFactor="1.10" vaporized=""/>
    <tripinfo id="943" depart="128.00" departLane="-4254213#3_0" departPos="5.10" departSpeed="9.44" departDelay="0.72" arrival="239.00" arrivalLane="732154817#4_0" arrivalPos="29.73" arrivalSpeed="9.36" duration="111.00" routeLength="775.61" waitingTime="10.00" waitingCount="2" stopTime="0.00" timeLoss="28.05" rerouteNo="0" devices="tripinfo_943" vType="DEFAULT_VEHTYPE" speedFactor="1.06" vaporized=""/>
    <tripinfo id="647" depart="146.00" departLane="230192881#0_0" departPos="5.10" departSpeed="9.01" departDelay="0.14" arrival="239.00" arrivalLane="977104959#1_0" arrivalPos="55.51" arrivalSpeed="8.60" duration="93.00" routeLength="751.75" waitingTime="0.00" waitingCount="0" stopTime="0.00" timeLoss="8.50" rerouteNo="0" devices="tripinfo_647" vType="DEFAULT_VEHTYPE" speedFactor="1.01" vaporized=""/>
    <tripinfo id="1692" depart="102.00" departLane="4260217#1_0" departPos="5.10" departSpeed="5.27" departDelay="0.13" arrival="242.00" arrivalLane="4223971#2_0" arrivalPos="17.43" arrivalSpeed="7.90" duration="140.00" routeLength="714.85" waitingTime="46.00" waitingCount="1" stopTime="0.00" timeLoss="58.46" rerouteNo="0" devices="tripinfo_1692" vType="DEFAULT_VEHTYPE" speedFactor="1.00" vaporized=""/>
    <tripinfo id="596" depart="71.00" departLane="4223971#2_0" departPos="5.10" departSpeed="8.41" departDelay="0.28" arrival="243.00" arrivalLane="977104959#1_0" arrivalPos="55.51" arrivalSpeed="8.94" duration="172.00" routeLength="852.63" waitingTime="54.00" waitingCount="2" stopTime="0.00" timeLoss="84.51" rerouteNo="0" devices="tripinfo_596" vType="DEFAULT_VEHTYPE" speedFactor="1.10" vaporized=""/>
    <tripinfo id="1325" depart="56.00" departLane="977104959#1_0" departPos="5.10" departSpeed="8.33" departDelay="0.61" arrival="246.00" arrivalLane="4260217#1_0" arrivalPos="11.14" arrivalSpeed="8.00" duration="190.00" routeLength="1138.26" waitingTime="21.00" waitingCount="3" stopTime="0.00" timeLoss="51.30" rerouteNo="0" devices="tripinfo_1325" vType="DEFAULT_VEHTYPE" speedFactor="0.93" vaporized=""/>
    <tripinfo id="189" depart="89.00" departLane="732154817#4_0" departPos="5.10" departSpeed="9.73" departDelay="0.40" arrival="247.00" arrivalLane="-849359570#2_0" arrivalPos="24.96" arrivalSpeed="4.91" duration="158.00" routeLength="925.32" waitingTime="42.00" waitingCount="3" stopTime="0.00" timeLoss="62.00" rerouteNo="0" devices="tripinfo_189" vType="DEFAULT_VEHTYPE" speedFactor="1.09" vaporized=""/>
    <tripinfo id="1382" depart="101.00" departLane="977104959#1_0" departPos="5.10" departSpeed="9.80" departDelay="0.73" arrival="249.00" arrivalLane="38900541#4_0" arrivalPos="28.49" arrivalSpeed="9.38" duration="148.00" routeLength="1081.87" waitingTime="11.00" waitingCount="3" stopTime="0.00" timeLoss="36.43" rerouteNo="0" devices="tripinfo_1382" vType="DEFAULT_VEHTYPE" speedFactor="1.10" vaporized=""/>
    <tripinfo id="1907" depart="104.00" departLane="4260217#1_0" departPos="5.10" departSpeed="1.53" departDelay="0.53" arrival="249.00" arrivalLane="4223971#2_0" arrivalPos="17.43" arrivalSpeed="7.59" duration="145.00" routeLength="714.85" waitingTime="39.00" waitingCount="1" stopTime="0.00" timeLoss="54.61" rerouteNo="0" devices="tripinfo_1907" vType="DEFAULT_VEHTYPE" speedFactor="0.90" vaporized=""/>
    <tripinfo id="1049" depart="60.00" departLane="-1068540402#0_0" departPos="5.10" departSpeed="8.99" departDelay="0.93" arrival="251.00" arrivalLane="4223971#2_0" arrivalPos="17.43" arrivalSpeed="8.04" duration="191.00" routeLength="997.91" waitingTime="57.00" waitingCount="3" stopTime="0.00" timeLoss="79.83" rerouteNo="0" devices="tripinfo_1049" vType="DEFAULT_VEHTYPE" speedFactor="1.01" vaporized=""/>
    <tripinfo id="1868" depart="66.00" departLane="38900541#4_0" departPos="5.10" departSpeed="9.12" departDelay="0.77" arrival="254.00" arrivalLane="4223971#2_0" arrivalPos="17.43" arrivalSpeed="8.62" duration="188.00" routeLength="1079.96" waitingTime="36.00" waitingCount="2" stopTime="0.00" timeLoss="67.98" rerouteNo="0" devices="tripinfo_1868" vType="DEFAULT_VEHTYPE" speedFactor="1.02" vaporized=""/>
    <tripinfo id="502" depart="201.00" departLane="230192881#0_0" departPos="5.10" departSpeed="9.52" departDelay="0.57" arrival="267.00" arrivalLane="-1068540402#0_0" arrivalPos="43.71" arrivalSpeed="8.95" duration="66.00" routeLength="410.58" waitingTime="5.00" waitingCount="2" stopTime="0.00" timeLoss="22.25" rerouteNo="0" devices="tripinfo_502" vType="DEFAULT_VEHTYPE" speedFactor="1.06" vaporized=""/>
    <tripinfo id="1287" depart="37.00" departLane="-4254213#3_0" departPos="5.10" departSpeed="8.37" departDelay="0.65" arrival="272.00" arrivalLane="38900541#4_1" arrivalPos="28.49" arrivalSpeed="8.21" duration="235.00" routeLength="1509.91" waitingTime="22.00" waitingCount="2" stopTime="0.00" timeLoss="52.67" rerouteNo="0" devices="tripinfo_1287" vType="DEFAULT_VEHTYPE" speedFactor="0.94" vaporized=""/>
    <tripinfo id="1444" depart="52.00" departLane="38900541#4_0" departPos="5.10" departSpeed="7.80" departDelay="0.67" arrival="272.00" arrivalLane="732154817#4_0" arrivalPos="29.73" arrivalSpeed="6.11" duration="220.00" routeLength="1149.05" waitingTime="33.00" waitingCount="5" stopTime="0.00" timeLoss="71.81" rerouteNo="0" devices="tripinfo_1444" vType="DEFAULT_VEHTYPE" speedFactor="0.87" vaporized=""/>
    <tripinfo id="1252" depart="136.00" departLane="732154817#4_0" departPos="5.10" departSpeed="9.23" departDelay="0.05" arrival="272.00" arrivalLane="-849359570#2_0" arrivalPos="24.96" arrivalSpeed="8.18" duration="136.00" routeLength="925.32" waitingTime="20.00" waitingCount="1" stopTime="0.00" timeLoss="35.47" rerouteNo="0" devices="tripinfo_1252" vType="DEFAULT_VEHTYPE" speedFactor="1.03" vaporized=""/>
    <tripinfo id="282" depart="3.00" departLane="4223971#2_0" departPos="5.10" departSpeed="8.39" departDelay="0.17" arrival="274.00" arrivalLane="732154817#4_0" arrivalPos="29.73" arrivalSpeed="8.18" duration="271.00" routeLength="1468.94" waitingTime="59.00" waitingCount="4" stopTime="0.00" timeLoss="93.68" rerouteNo="0" devices="tripinfo_282" vType="DEFAULT_VEHTYPE" speedFactor="0.94" vaporized=""/>
    <tripinfo id="1385" depart="33.00" departLane="-4254213#3_0" departPos="5.10" departSpeed="8.29" departDelay="0.86" arrival="276.00" arrivalLane="38900541#4_1" arrivalPos="28.49" arrivalSpeed="7.51" duration="243.00" routeLength="1509.91" waitingTime="26.00" waitingCount="3" stopTime="0.00" timeLoss="58.59" rerouteNo="0" devices="tripinfo_1385" vType="DEFAULT_VEHTYPE" speedFactor="0.93" vaporized=""/>
    <tripinfo id="919" depart="139.00" departLane="977104959#1_0" departPos="5.10" departSpeed="8.78" departDelay="0.26" arrival="278.00" arrivalLane="732154817#4_0" arrivalPos="29.73" arrivalSpeed="8.54" duration="139.00" routeLength="1009.68" waitingTime="2.00" waitingCount="1" stopTime="0.00" timeLoss="21.85" rerouteNo="0" devices="tripinfo_919" vType="DEFAULT_VEHTYPE" speedFactor="0.98" vaporized=""/>
    <tripinfo id="244" depart="12.00" departLane="537856043_0" departPos="0.64" departSpeed="0.00" departDelay="0.88" arrival="280.00" arrivalLane="38900541#4_1" arrivalPos="28.49" arrivalSpeed="8.39" duration="268.00" routeLength="1872.35" waitingTime="26.00" waitingCount="3" stopTime="0.00" timeLoss="71.74" rerouteNo="0" devices="tripinfo_244" vType="DEFAULT_VEHTYPE" speedFactor="1.08" vaporized=""/>
    <tripinfo id="192" depart="226.00" departLane="977104959#1_0" departPos="5.10" departSpeed="8.42" departDelay="0.02" arrival="281.00" arrivalLane="-849359570#2_0" arrivalPos="24.96" arrivalSpeed="7.82" duration="55.00" routeLength="266.71" waitingTime="10.00" waitingCount="1" stopTime="0.00" timeLoss="21.38" rerouteNo="0" devices="tripinfo_192" vType="DEFAULT_VEHTYPE" speedFactor="0.94" vaporized=""/>
    <tripinfo id="366" depart="108.00" departLane="405576227_0" departPos="0.20" departSpeed="9.08" departDelay="0.07" arrival="282.00" arrivalLane="977104959#1_0" arrivalPos="55.51" arrivalSpeed="8.32" duration="174.00" routeLength="1172.32" waitingTime="19.00" waitingCount="3" stopTime="0.00" timeLoss="44.40" rerouteNo="0" devices="tripinfo_366" vType="DEFAULT_VEHTYPE" speedFactor="1.02" vaporized=""/>
    <tripinfo id="128" depart="117.00" departLane="732154817#4_0" departPos="5.10" departSpeed="9.30" departDelay="0.41" arrival="287.00" arrivalLane="-4254213#3_0" arrivalPos="19.14" arrivalSpeed="9.26" duration="170.00" routeLength="1279.17" waitingTime="10.00" waitingCount="1" stopTime="0.00" timeLoss="29.74" rerouteNo="0" devices="tripinfo_128" vType="DEFAULT_VEHTYPE" speedFactor="1.04" vaporized=""/>
    <tripinfo id="222" depart="102.00" departLane="537856043_0" departPos="0.64" departSpeed="6.59" departDelay="0.57" arrival="294.00" arrivalLane="4223961#4_0" arrivalPos="35.73" arrivalSpeed="8.37" duration="192.00" routeLength="1241.23" waitingTime="18.00" waitingCount="3" stopTime="0.00" timeLoss="52.70" rerouteNo="0" devices="tripinfo_222" vType="DEFAULT_VEHTYPE" speedFactor="1.00" vaporized=""/>
    <tripinfo id="566" depart="168.00" departLane="4223971#2_0" departPos="5.10" departSpeed="8.41" departDelay="0.24" arrival="294.00" arrivalLane="977104959#1_0" arrivalPos="55.51" arrivalSpeed="8.39" duration="126.00" routeLength="852.63" waitingTime="10.00" waitingCount="1" stopTime="0.00" timeLoss="29.87" rerouteNo="0" devices="tripinfo_566" vType="DEFAULT_VEHTYPE" speedFactor="1.01" vaporized=""/>
    <tripinfo id="1842" depart="155.00" departLane="4223961#4_0" departPos="5.10" departSpeed="8.64" departDelay="0.43" arrival="295.00" arrivalLane="468181430#2_1" arrivalPos="24.92" arrivalSpeed="7.36" duration="140.00" routeLength="978.78" waitingTime="2.00" waitingCount="1" stopTime="0.00" timeLoss="25.32" rerouteNo="0" devices="tripinfo_1842" vType="DEFAULT_VEHTYPE" speedFactor="0.97" vaporized=""/>
    <tripinfo id="19" depart="164.00" departLane="3076785#8_0" departPos="5.10" departSpeed="9.32" departDelay="0.98" arrival="295.00" arrivalLane="405576227_1" arrivalPos="0.20" arrivalSpeed="3.37" duration="131.00" routeLength="1033.64" waitingTime="0.00" waitingCount="0" stopTime="0.00" timeLoss="17.34" rerouteNo="0" devices="tripinfo_19" vType="DEFAULT_VEHTYPE" speedFactor="1.04" vaporized=""/>
    <tripinfo id="1202" depart="105.00" departLane="977104959#1_0" departPos="5.10" departSpeed="9.15" departDelay="0.44" arrival="304.00" arrivalLane="38900541#4_0" arrivalPos="28.49" arrivalSpeed="8.72" duration="199.00" routeLength="1081.87" waitingTime="51.00" waitingCount="4" stopTime="0.00" timeLoss="78.45" rerouteNo="0" devices="tripinfo_1202" vType="DEFAULT_VEHTYPE" speedFactor="1.02" vaporized=""/>
    <tripinfo id="1512" depart="130.00" departLane="-849359570#2_0" departPos="5.10" departSpeed="8.81" departDelay="1.39" arrival="308.00" arrivalLane="732154817#4_0" arrivalPos="29.73" arrivalSpeed="8.47" duration="178.00" routeLength="983.41" waitingTime="40.00" waitingCount="3" stopTime="0.00" timeLoss="63.68" rerouteNo="0" devices="tripinfo_1512" vType="DEFAULT_VEHTYPE" speedFactor="0.98" vaporized=""/>
    <tripinfo id="961" depart="303.00" departLane="977104959#1_0" departPos="5.10" departSpeed="5.81" departDelay="0.37" arrival="311.00" arrivalLane="977104959#1_0" arrivalPos="55.51" arrivalSpeed="5.83" duration="8.00" routeLength="50.41" waitingTime="0.00" waitingCount="0" stopTime="0.00" timeLoss="2.30" rerouteNo="0" devices="tripinfo_961" vType="DEFAULT_VEHTYPE" speedFactor="0.99" vaporized=""/>
    <tripinfo id="518" depart="5.00" departLane="405576227_0" departPos="0.20" departSpeed="9.03" departDelay="0.23" arrival="320.00" arrivalLane="-4254213#3_0" arrivalPos="19.14" arrivalSpeed="8.41" duration="315.00" routeLength="2408.46" waitingTime="6.00" waitingCount="2" stopTime="0.00" timeLoss="46.46" rerouteNo="0" devices="tripinfo_518" vType="DEFAULT_VEHTYPE" speedFactor="1.01" vaporized=""/>
    <tripinfo id="771" depart="48.00" departLane="468181430#2_0" departPos="5.10" departSpeed="7.95" departDelay="0.05" arrival="321.00" arrivalLane="4260217#1_0" arrivalPos="11.14" arrivalSpeed="7.83" duration="273.00" routeLength="1440.15" waitingTime="63.00" waitingCount="3" stopTime="0.00" timeLoss="91.05" rerouteNo="0" devices="tripinfo_771" vType="DEFAULT_VEHTYPE" speedFactor="0.89" vaporized=""/>
    <tripinfo id="1335" depart="109.00" departLane="977104959#1_0" departPos="5.10" departSpeed="8.38" departDelay="0.24" arrival="321.00" arrivalLane="4223961#4_0" arrivalPos="35.73" arrivalSpeed="7.83" duration="212.00" routeLength="1090.31" waitingTime="50.00" waitingCount="4" stopTime="0.00" timeLoss="79.44" rerouteNo="0" devices="tripinfo_1335" vType="DEFAULT_VEHTYPE" speedFactor="0.94" vaporized=""/>
    <tripinfo id="1906" depart="184.00" departLane="-849359570#2_0" departPos="5.10" departSpeed="9.45" departDelay="0.79" arrival="322.00" arrivalLane="405576227_1" arrivalPos="0.20" arrivalSpeed="2.93" duration="138.00" routeLength="1018.49" waitingTime="3.00" waitingCount="2" stopTime="0.00" timeLoss="29.48" rerouteNo="0" devices="tripinfo_1906" vType="DEFAULT_VEHTYPE" speedFactor="1.06" vaporized=""/>
    <tripinfo id="828" depart="89.00" departLane="468181430#2_0" departPos="5.10" departSpeed="8.92" departDelay="0.12" arrival="323.00" arrivalLane="4260217#1_0" arrivalPos="11.14" arrivalSpeed="8.36" duration="234.00" routeLength="1440.15" waitingTime="40.00" waitingCount="2" stopTime="0.00" timeLoss="71.71" rerouteNo="0" devices="tripinfo_828" vType="DEFAULT_VEHTYPE" speedFactor="1.00" vaporized=""/>
    <tripinfo id="1290" depart="308.00" departLane="-1068540402#0_0" departPos="5.10" departSpeed="8.80" departDelay="0.64" arrival="323.00" arrivalLane="38900541#4_1" arrivalPos="28.49" arrivalSpeed="7.96" duration="15.00" routeLength="105.32" waitingTime="0.00" waitingCount="0" stopTime="0.00" timeLoss="2.25" rerouteNo="0" devices="tripinfo_1290" vType="DEFAULT_VEHTYPE" speedFactor="0.98" vaporized=""/>
    <tripinfo id="332" depart="209.00" departLane="230192881#0_0" departPos="5.10" departSpeed="8.52" departDelay="0.96" arrival="326.00" arrivalLane="977104959#1_0" arrivalPos="55.51" arrivalSpeed="7.53" duration="117.00" routeLength="751.75" waitingTime="11.00" waitingCount="2" stopTime="0.00" timeLoss="27.35" rerouteNo="0" devices="tripinfo_332" vType="DEFAULT_VEHTYPE" speedFactor="0.95" vaporized=""/>
    <tripinfo id="1021" depart="186.00" departLane="-1068540402#0_0" departPos="5.10" departSpeed="9.03" departDelay="0.73" arrival="330.00" arrivalLane="4223971#2_0" arrivalPos="17.43" arrivalSpeed="8.46" duration="144.00" routeLength="997.91" waitingTime="14.00" waitingCount="2" stopTime="0.00" timeLoss="32.90" rerouteNo="0" devices="tripinfo_1021" vType="DEFAULT_VEHTYPE" speedFactor="1.01" vaporized=""/>
    <tripinfo id="408" depart="222.00" departLane="230192881#0_0" departPos="5.10" departSpeed="8.24" departDelay="1.35" arrival="330.00" arrivalLane="977104959#1_0" arrivalPos="55.51" arrivalSpeed="7.06" duration="108.00" routeLength="751.75" waitingTime="2.00" waitingCount="1" stopTime="0.00" timeLoss="15.48" rerouteNo="0" devices="tripinfo_408" vType="DEFAULT_VEHTYPE" speedFactor="0.92" vaporized=""/>
    <tripinfo id="564" depart="154.00" departLane="230192881#0_0" departPos="5.10" departSpeed="9.09" departDelay="0.38" arrival="336.00" arrivalLane="-4254213#3_0" arrivalPos="19.14" arrivalSpeed="8.51" duration="182.00" routeLength="1390.66" waitingTime="4.00" waitingCount="1" stopTime="0.00" timeLoss="25.72" rerouteNo="0" devices="tripinfo_564" vType="DEFAULT_VEHTYPE" speedFactor="1.02" vaporized=""/>
    <tripinfo id="1942" depart="284.00" departLane="4223961#4_0" departPos="5.10" departSpeed="10.04" departDelay="0.20" arrival="338.00" arrivalLane="4223971#2_0" arrivalPos="17.43" arrivalSpeed="9.98" duration="54.00" routeLength="389.89" waitingTime="4.00" waitingCount="1" stopTime="0.00" timeLoss="13.71" rerouteNo="0" devices="tripinfo_1942" vType="DEFAULT_VEHTYPE" speedFactor="1.12" vaporized=""/>
    <tripinfo id="63" depart="1.00" departLane="3076785#8_0" departPos="5.10" departSpeed="9.48" departDelay="0.21" arrival="343.00" arrivalLane="4223971#2_0" arrivalPos="17.43" arrivalSpeed="9.25" duration="342.00" routeLength="1945.30" waitingTime="93.00" waitingCount="4" stopTime="0.00" timeLoss="134.30" rerouteNo="0" devices="tripinfo_63" vType="DEFAULT_VEHTYPE" speedFactor="1.06" vaporized=""/>
    <tripinfo id="62" depart="208.00" departLane="977104959#1_0" departPos="5.10" departSpeed="8.66" departDelay="0.28" arrival="344.00" arrivalLane="230192881#0_0" arrivalPos="38.16" arrivalSpeed="7.88" duration="136.00" routeLength="768.09" waitingTime="30.00" waitingCount="2" stopTime="0.00" timeLoss="46.41" rerouteNo="0" devices="tripinfo_62" vType="DEFAULT_VEHTYPE" speedFactor="0.97" vaporized=""/>
    <tripinfo id="5" depart="56.00" departLane="3076785#8_0" departPos="5.10" departSpeed="10.54" departDelay="0.35" arrival="345.00" arrivalLane="4223971#2_0" arrivalPos="17.43" arrivalSpeed="10.45" duration="289.00" routeLength="1945.30" waitingTime="46.00" waitingCount="1" stopTime="0.00" timeLoss="101.84" rerouteNo="0" devices="tripinfo_5" vType="DEFAULT_VEHTYPE" speedFactor="1.18" vaporized=""/>
    <tripinfo id="97" depart="324.00" departLane="732154817#4_0" departPos="5.10" departSpeed="6.91" departDelay="1.18" arrival="346.00" arrivalLane="732154817#4_0" arrivalPos="29.73" arrivalSpeed="3.92" duration="22.00" routeLength="24.63" waitingTime="14.00" waitingCount="1" stopTime="0.00" timeLoss="19.48" rerouteNo="0" devices="tripinfo_97" vType="DEFAULT_VEHTYPE" speedFactor="1.09" vaporized=""/>