<?xml version="1.0" encoding="UTF-8"?>

<!-- generated on 2023-04-24 14:31:16 by Eclipse SUMO sumo Version 1.14.1
<configuration xmlns:xsi="http://www.w3.org/2001/XMLSchema-instance" xsi:noNamespaceSchemaLocation="http://sumo.dlr.de/xsd/sumoConfiguration.xsd">

    <input>
        <net-file value="002/../COL.net.xml"/>
        <route-files value="002/d_file_80.odtrips_002.rou.xml"/>
        <additional-files value="002/../edgedata.add.xml"/>
    </input>

    <output>
        <output-prefix value="002/"/>
        <summary-output value="002/../summary_002.xml"/>
        <tripinfo-output value="002/../tripinfo_002.xml"/>
    </output>

    <time>
        <begin value="0"/>
    </time>

    <processing>
        <route-steps value="200"/>
        <no-internal-links value="false"/>
        <time-to-teleport value="300"/>
        <time-to-teleport.highways value="0"/>
        <eager-insert value="false"/>
    </processing>

    <report>
        <verbose value="true"/>
        <no-warnings value="false"/>
        <log value="002/../iteration_002.sumo.log"/>
        <no-step-log value="true"/>
    </report>

    <random_number>
        <random value="false"/>
    </random_number>

</configuration>
-->

<tripinfos xmlns:xsi="http://www.w3.org/2001/XMLSchema-instance" xsi:noNamespaceSchemaLocation="http://sumo.dlr.de/xsd/tripinfo_file.xsd">
    <tripinfo id="9" depart="19.00" departLane="537856043_0" departPos="0.64" departSpeed="0.00" departDelay="0.61" arrival="50.00" arrivalLane="405576227_1" arrivalPos="0.20" arrivalSpeed="2.94" duration="31.00" routeLength="175.55" waitingTime="1.00" waitingCount="1" stopTime="0.00" timeLoss="10.07" rerouteNo="0" devices="tripinfo_9" vType="DEFAULT_VEHTYPE" speedFactor="1.05" vaporized=""/>
    <tripinfo id="1428" depart="60.00" departLane="-849359570#2_0" departPos="5.10" departSpeed="9.13" departDelay="0.15" arrival="79.00" arrivalLane="977104959#1_0" arrivalPos="55.51" arrivalSpeed="9.68" duration="19.00" routeLength="175.69" waitingTime="0.00" waitingCount="0" stopTime="0.00" timeLoss="1.77" rerouteNo="0" devices="tripinfo_1428" vType="DEFAULT_VEHTYPE" speedFactor="1.17" vaporized=""/>
    <tripinfo id="748" depart="19.00" departLane="4223971#2_0" departPos="5.10" departSpeed="7.92" departDelay="0.03" arrival="91.00" arrivalLane="4223961#4_0" arrivalPos="35.73" arrivalSpeed="7.71" duration="72.00" routeLength="494.39" waitingTime="0.00" waitingCount="0" stopTime="0.00" timeLoss="8.09" rerouteNo="0" devices="tripinfo_748" vType="DEFAULT_VEHTYPE" speedFactor="0.89" vaporized=""/>
    <tripinfo id="906" depart="93.00" departLane="732154817#4_0" departPos="5.10" departSpeed="7.60" departDelay="0.49" arrival="97.00" arrivalLane="732154817#4_0" arrivalPos="29.73" arrivalSpeed="7.05" duration="4.00" routeLength="24.63" waitingTime="0.00" waitingCount="0" stopTime="0.00" timeLoss="0.39" rerouteNo="0" devices="tripinfo_906" vType="DEFAULT_VEHTYPE" speedFactor="0.85" vaporized=""/>
    <tripinfo id="1772" depart="26.00" departLane="-849359570#2_0" departPos="5.10" departSpeed="8.86" departDelay="0.14" arrival="100.00" arrivalLane="230192881#0_0" arrivalPos="38.16" arrivalSpeed="7.69" duration="74.00" routeLength="568.61" waitingTime="0.00" waitingCount="0" stopTime="0.00" timeLoss="8.51" rerouteNo="0" devices="tripinfo_1772" vType="DEFAULT_VEHTYPE" speedFactor="0.99" vaporized=""/>
    <tripinfo id="1947" depart="56.00" departLane="4223961#4_0" departPos="5.10" departSpeed="10.12" departDelay="0.87" arrival="101.00" arrivalLane="4223971#2_0" arrivalPos="17.43" arrivalSpeed="9.16" duration="45.00" routeLength="389.89" waitingTime="0.00" waitingCount="0" stopTime="0.00" timeLoss="5.35" rerouteNo="0" devices="tripinfo_1947" vType="DEFAULT_VEHTYPE" speedFactor="1.13" vaporized=""/>
    <tripinfo id="959" depart="121.00" departLane="977104959#1_0" departPos="5.10" departSpeed="9.14" departDelay="0.65" arrival="127.00" arrivalLane="977104959#1_0" arrivalPos="55.51" arrivalSpeed="8.37" duration="6.00" routeLength="50.41" waitingTime="0.00" waitingCount="0" stopTime="0.00" timeLoss="0.44" rerouteNo="0" devices="tripinfo_959" vType="DEFAULT_VEHTYPE" speedFactor="1.02" vaporized=""/>
    <tripinfo id="1749" depart="35.00" departLane="-849359570#2_0" departPos="5.10" departSpeed="8.42" departDelay="0.00" arrival="143.00" arrivalLane="4223971#2_0" arrivalPos="17.43" arrivalSpeed="7.27" duration="108.00" routeLength="684.76" waitingTime="12.00" waitingCount="2" stopTime="0.00" timeLoss="25.69" rerouteNo="0" devices="tripinfo_1749" vType="DEFAULT_VEHTYPE" speedFactor="0.94" vaporized=""/>
    <tripinfo id="570" depart="47.00" departLane="4223971#2_0" departPos="5.10" departSpeed="8.41" departDelay="0.10" arrival="160.00" arrivalLane="977104959#1_0" arrivalPos="55.51" arrivalSpeed="7.81" duration="113.00" routeLength="852.63" waitingTime="0.00" waitingCount="0" stopTime="0.00" timeLoss="13.89" rerouteNo="0" devices="tripinfo_570" vType="DEFAULT_VEHTYPE" speedFactor="0.97" vaporized=""/>
    <tripinfo id="1349" depart="17.00" departLane="732154817#4_0" departPos="5.10" departSpeed="7.43" departDelay="0.92" arrival="170.00" arrivalLane="-849359570#2_0" arrivalPos="24.96" arrivalSpeed="6.74" duration="153.00" routeLength="925.32" waitingTime="12.00" waitingCount="1" stopTime="0.00" timeLoss="27.53" rerouteNo="0" devices="tripinfo_1349" vType="DEFAULT_VEHTYPE" speedFactor="0.83" vaporized=""/>
    <tripinfo id="141" depart="40.00" departLane="977104959#1_0" departPos="5.10" departSpeed="9.10" departDelay="0.97" arrival="172.00" arrivalLane="732154817#4_0" arrivalPos="29.73" arrivalSpeed="8.50" duration="132.00" routeLength="1009.68" waitingTime="3.00" waitingCount="1" stopTime="0.00" timeLoss="19.06" rerouteNo="0" devices="tripinfo_141" vType="DEFAULT_VEHTYPE" speedFactor="1.02" vaporized=""/>
    <tripinfo id="1832" depart="122.00" departLane="4223961#4_0" departPos="5.10" departSpeed="8.70" departDelay="0.09" arrival="174.00" arrivalLane="4223971#2_0" arrivalPos="17.43" arrivalSpeed="8.06" duration="52.00" routeLength="389.89" waitingTime="0.00" waitingCount="0" stopTime="0.00" timeLoss="5.23" rerouteNo="0" devices="tripinfo_1832" vType="DEFAULT_VEHTYPE" speedFactor="0.97" vaporized=""/>
    <tripinfo id="542" depart="55.00" departLane="230192881#0_0" departPos="5.10" departSpeed="8.48" departDelay="0.53" arrival="177.00" arrivalLane="977104959#1_0" arrivalPos="55.51" arrivalSpeed="7.86" duration="122.00" routeLength="751.75" waitingTime="15.00" waitingCount="1" stopTime="0.00" timeLoss="32.06" rerouteNo="0" devices="tripinfo_542" vType="DEFAULT_VEHTYPE" speedFactor="0.95" vaporized=""/>
    <tripinfo id="417" depart="78.00" departLane="230192881#0_0" departPos="5.10" departSpeed="9.28" departDelay="0.11" arrival="181.00" arrivalLane="732154817#4_0" arrivalPos="29.73" arrivalSpeed="8.39" duration="103.00" routeLength="784.23" waitingTime="1.00" waitingCount="1" stopTime="0.00" timeLoss="17.05" rerouteNo="0" devices="tripinfo_417" vType="DEFAULT_VEHTYPE" speedFactor="1.04" vaporized=""/>
    <tripinfo id="507" depart="106.00" departLane="230192881#0_0" departPos="5.10" departSpeed="8.67" departDelay="0.82" arrival="181.00" arrivalLane="-1068540402#0_0" arrivalPos="43.71" arrivalSpeed="8.13" duration="75.00" routeLength="410.58" waitingTime="20.00" waitingCount="1" stopTime="0.00" timeLoss="26.95" rerouteNo="0" devices="tripinfo_507" vType="DEFAULT_VEHTYPE" speedFactor="0.97" vaporized=""/>
    <tripinfo id="694" depart="109.00" departLane="230192881#0_0" departPos="5.10" departSpeed="8.82" departDelay="0.75" arrival="194.00" arrivalLane="38900541#4_1" arrivalPos="28.49" arrivalSpeed="7.99" duration="85.00" routeLength="477.29" waitingTime="18.00" waitingCount="1" stopTime="0.00" timeLoss="29.61" rerouteNo="0" devices="tripinfo_694" vType="DEFAULT_VEHTYPE" speedFactor="0.99" vaporized=""/>
    <tripinfo id="1869" depart="57.00" departLane="-849359570#2_0" departPos="5.10" departSpeed="10.32" departDelay="0.73" arrival="199.00" arrivalLane="4223971#2_0" arrivalPos="17.43" arrivalSpeed="9.91" duration="142.00" routeLength="684.76" waitingTime="57.00" waitingCount="3" stopTime="0.00" timeLoss="74.17" rerouteNo="0" devices="tripinfo_1869" vType="DEFAULT_VEHTYPE" speedFactor="1.15" vaporized=""/>
    <tripinfo id="1152" depart="64.00" departLane="977104959#1_0" departPos="5.10" departSpeed="8.89" departDelay="0.82" arrival="205.00" arrivalLane="4223971#2_0" arrivalPos="17.43" arrivalSpeed="7.60" duration="141.00" routeLength="872.35" waitingTime="17.00" waitingCount="1" stopTime="0.00" timeLoss="41.19" rerouteNo="0" devices="tripinfo_1152" vType="DEFAULT_VEHTYPE" speedFactor="0.99" vaporized=""/>
    <tripinfo id="1242" depart="50.00" departLane="732154817#4_0" departPos="5.10" departSpeed="7.38" departDelay="0.95" arrival="206.00" arrivalLane="-849359570#2_0" arrivalPos="24.96" arrivalSpeed="6.11" duration="156.00" routeLength="927.56" waitingTime="7.00" waitingCount="2" stopTime="0.00" timeLoss="28.75" rerouteNo="0" devices="tripinfo_1242" vType="DEFAULT_VEHTYPE" speedFactor="0.83" vaporized=""/>
    <tripinfo id="189" depart="89.00" departLane="732154817#4_0" departPos="5.10" departSpeed="9.73" departDelay="0.40" arrival="208.00" arrivalLane="-849359570#2_0" arrivalPos="24.96" arrivalSpeed="9.04" duration="119.00" routeLength="927.56" waitingTime="0.00" waitingCount="0" stopTime="0.00" timeLoss="22.06" rerouteNo="0" devices="tripinfo_189" vType="DEFAULT_VEHTYPE" speedFactor="1.09" vaporized=""/>
    <tripinfo id="525" depart="38.00" departLane="230192881#0_0" departPos="5.10" departSpeed="10.35" departDelay="0.30" arrival="212.00" arrivalLane="-4254213#3_0" arrivalPos="19.14" arrivalSpeed="9.45" duration="174.00" routeLength="1390.66" waitingTime="13.00" waitingCount="2" stopTime="0.00" timeLoss="37.17" rerouteNo="0" devices="tripinfo_525" vType="DEFAULT_VEHTYPE" speedFactor="1.16" vaporized=""/>
    <tripinfo id="674" depart="34.00" departLane="468181430#2_0" departPos="5.10" departSpeed="7.85" departDelay="0.46" arrival="216.00" arrivalLane="-849359570#2_0" arrivalPos="24.96" arrivalSpeed="7.83" duration="182.00" routeLength="1057.03" waitingTime="22.00" waitingCount="2" stopTime="0.00" timeLoss="45.94" rerouteNo="0" devices="tripinfo_674" vType="DEFAULT_VEHTYPE" speedFactor="0.88" vaporized=""/>
    <tripinfo id="1005" depart="91.00" departLane="977104959#1_0" departPos="5.10" departSpeed="7.12" departDelay="1.86" arrival="226.00" arrivalLane="537856043_0" arrivalPos="0.64" arrivalSpeed="7.44" duration="135.00" routeLength="904.63" waitingTime="3.00" waitingCount="1" stopTime="0.00" timeLoss="22.07" rerouteNo="0" devices="tripinfo_1005" vType="DEFAULT_VEHTYPE" speedFactor="0.90" vaporized=""/>
    <tripinfo id="596" depart="71.00" departLane="4223971#2_0" departPos="5.10" departSpeed="8.41" departDelay="0.28" arrival="227.00" arrivalLane="977104959#1_0" arrivalPos="55.51" arrivalSpeed="9.39" duration="156.00" routeLength="852.63" waitingTime="47.00" waitingCount="2" stopTime="0.00" timeLoss="67.98" rerouteNo="0" devices="tripinfo_596" vType="DEFAULT_VEHTYPE" speedFactor="1.10" vaporized=""/>
    <tripinfo id="1382" depart="101.00" departLane="977104959#1_0" departPos="5.10" departSpeed="9.80" departDelay="0.73" arrival="227.00" arrivalLane="38900541#4_1" arrivalPos="28.49" arrivalSpeed="9.11" duration="126.00" routeLength="1081.87" waitingTime="0.00" waitingCount="0" stopTime="0.00" timeLoss="13.98" rerouteNo="0" devices="tripinfo_1382" vType="DEFAULT_VEHTYPE" speedFactor="1.10" vaporized=""/>
    <tripinfo id="1142" depart="24.00" departLane="732154817#4_0" departPos="5.10" departSpeed="5.18" departDelay="0.11" arrival="228.00" arrivalLane="405576227_1" arrivalPos="0.20" arrivalSpeed="3.61" duration="204.00" routeLength="1543.14" waitingTime="9.00" waitingCount="2" stopTime="0.00" timeLoss="37.89" rerouteNo="0" devices="tripinfo_1142" vType="DEFAULT_VEHTYPE" speedFactor="1.05" vaporized=""/>
    <tripinfo id="917" depart="222.00" departLane="977104959#1_0" departPos="5.10" departSpeed="6.48" departDelay="3.77" arrival="230.00" arrivalLane="977104959#1_0" arrivalPos="55.51" arrivalSpeed="6.56" duration="8.00" routeLength="50.41" waitingTime="0.00" waitingCount="0" stopTime="0.00" timeLoss="0.93" rerouteNo="0" devices="tripinfo_917" vType="DEFAULT_VEHTYPE" speedFactor="0.87" vaporized=""/>
    <tripinfo id="1213" depart="220.00" departLane="-1068540402#0_0" departPos="5.10" departSpeed="9.82" departDelay="0.97" arrival="234.00" arrivalLane="38900541#4_1" arrivalPos="28.49" arrivalSpeed="8.63" duration="14.00" routeLength="105.32" waitingTime="0.00" waitingCount="0" stopTime="0.00" timeLoss="2.42" rerouteNo="0" devices="tripinfo_1213" vType="DEFAULT_VEHTYPE" speedFactor="1.10" vaporized=""/>
    <tripinfo id="1692" depart="102.00" departLane="4260217#1_0" departPos="5.10" departSpeed="5.27" departDelay="0.13" arrival="242.00" arrivalLane="4223971#2_0" arrivalPos="17.43" arrivalSpeed="7.84" duration="140.00" routeLength="714.85" waitingTime="45.00" waitingCount="1" stopTime="0.00" timeLoss="58.59" rerouteNo="0" devices="tripinfo_1692" vType="DEFAULT_VEHTYPE" speedFactor="1.00" vaporized=""/>
    <tripinfo id="1325" depart="56.00" departLane="977104959#1_0" departPos="5.10" departSpeed="8.33" departDelay="0.61" arrival="245.00" arrivalLane="4260217#1_0" arrivalPos="11.14" arrivalSpeed="7.75" duration="189.00" routeLength="1138.26" waitingTime="26.00" waitingCount="3" stopTime="0.00" timeLoss="50.99" rerouteNo="0" devices="tripinfo_1325" vType="DEFAULT_VEHTYPE" speedFactor="0.93" vaporized=""/>
    <tripinfo id="110" depart="82.00" departLane="732154817#4_0" departPos="5.10" departSpeed="9.33" departDelay="0.37" arrival="245.00" arrivalLane="-4254213#3_0" arrivalPos="19.14" arrivalSpeed="9.18" duration="163.00" routeLength="1279.17" waitingTime="5.00" waitingCount="1" stopTime="0.00" timeLoss="23.58" rerouteNo="0" devices="tripinfo_110" vType="DEFAULT_VEHTYPE" speedFactor="1.04" vaporized=""/>
    <tripinfo id="1907" depart="104.00" departLane="4260217#1_0" departPos="5.10" departSpeed="0.75" departDelay="0.53" arrival="249.00" arrivalLane="4223971#2_0" arrivalPos="17.43" arrivalSpeed="7.16" duration="145.00" routeLength="714.85" waitingTime="39.00" waitingCount="1" stopTime="0.00" timeLoss="54.54" rerouteNo="0" devices="tripinfo_1907" vType="DEFAULT_VEHTYPE" speedFactor="0.90" vaporized=""/>
    <tripinfo id="943" depart="128.00" departLane="-4254213#3_0" departPos="5.10" departSpeed="9.44" departDelay="0.72" arrival="252.00" arrivalLane="732154817#4_0" arrivalPos="29.73" arrivalSpeed="8.71" duration="124.00" routeLength="844.11" waitingTime="4.00" waitingCount="1" stopTime="0.00" timeLoss="32.55" rerouteNo="0" devices="tripinfo_943" vType="DEFAULT_VEHTYPE" speedFactor="1.06" vaporized=""/>
    <tripinfo id="1868" depart="66.00" departLane="38900541#4_0" departPos="5.10" departSpeed="9.12" departDelay="0.77" arrival="253.00" arrivalLane="4223971#2_0" arrivalPos="17.43" arrivalSpeed="8.33" duration="187.00" routeLength="1079.96" waitingTime="40.00" waitingCount="2" stopTime="0.00" timeLoss="67.55" rerouteNo="0" devices="tripinfo_1868" vType="DEFAULT_VEHTYPE" speedFactor="1.02" vaporized=""/>
    <tripinfo id="647" depart="146.00" departLane="230192881#0_0" departPos="5.10" departSpeed="9.01" departDelay="0.14" arrival="264.00" arrivalLane="977104959#1_0" arrivalPos="55.51" arrivalSpeed="7.76" duration="118.00" routeLength="817.58" waitingTime="11.00" waitingCount="1" stopTime="0.00" timeLoss="25.92" rerouteNo="0" devices="tripinfo_647" vType="DEFAULT_VEHTYPE" speedFactor="1.01" vaporized=""/>
    <tripinfo id="1674" depart="54.00" departLane="4260217#1_0" departPos="5.10" departSpeed="5.27" departDelay="0.06" arrival="269.00" arrivalLane="4223971#2_0" arrivalPos="17.43" arrivalSpeed="7.11" duration="215.00" routeLength="925.43" waitingTime="74.00" waitingCount="4" stopTime="0.00" timeLoss="99.70" rerouteNo="0" devices="tripinfo_1674" vType="DEFAULT_VEHTYPE" speedFactor="0.92" vaporized=""/>
    <tripinfo id="1049" depart="60.00" departLane="-1068540402#0_0" departPos="5.10" departSpeed="8.99" departDelay="0.93" arrival="271.00" arrivalLane="4223971#2_0" arrivalPos="17.43" arrivalSpeed="8.48" duration="211.00" routeLength="1041.03" waitingTime="58.00" waitingCount="5" stopTime="0.00" timeLoss="94.26" rerouteNo="0" devices="tripinfo_1049" vType="DEFAULT_VEHTYPE" speedFactor="1.01" vaporized=""/>
    <tripinfo id="192" depart="226.00" departLane="977104959#1_0" departPos="5.10" departSpeed="5.63" departDelay="0.02" arrival="271.00" arrivalLane="-849359570#2_0" arrivalPos="24.96" arrivalSpeed="7.32" duration="45.00" routeLength="266.71" waitingTime="0.00" waitingCount="0" stopTime="0.00" timeLoss="10.80" rerouteNo="0" devices="tripinfo_192" vType="DEFAULT_VEHTYPE" speedFactor="0.94" vaporized=""/>
    <tripinfo id="1385" depart="33.00" departLane="-4254213#3_0" departPos="5.10" departSpeed="8.29" departDelay="0.86" arrival="272.00" arrivalLane="38900541#4_1" arrivalPos="28.49" arrivalSpeed="8.06" duration="239.00" routeLength="1509.91" waitingTime="29.00" waitingCount="2" stopTime="0.00" timeLoss="55.00" rerouteNo="0" devices="tripinfo_1385" vType="DEFAULT_VEHTYPE" speedFactor="0.93" vaporized=""/>
    <tripinfo id="1426" depart="25.00" departLane="4223961#4_0" departPos="5.10" departSpeed="10.04" departDelay="0.56" arrival="276.00" arrivalLane="732154817#4_0" arrivalPos="29.73" arrivalSpeed="8.13" duration="251.00" routeLength="1601.80" waitingTime="33.00" waitingCount="5" stopTime="0.00" timeLoss="89.15" rerouteNo="0" devices="tripinfo_1426" vType="DEFAULT_VEHTYPE" speedFactor="1.12" vaporized=""/>
    <tripinfo id="1287" depart="37.00" departLane="-4254213#3_0" departPos="5.10" departSpeed="8.37" departDelay="0.65" arrival="277.00" arrivalLane="38900541#4_1" arrivalPos="28.49" arrivalSpeed="7.35" duration="240.00" routeLength="1509.91" waitingTime="29.00" waitingCount="2" stopTime="0.00" timeLoss="57.39" rerouteNo="0" devices="tripinfo_1287" vType="DEFAULT_VEHTYPE" speedFactor="0.94" vaporized=""/>
    <tripinfo id="1252" depart="136.00" departLane="732154817#4_0" departPos="5.10" departSpeed="9.23" departDelay="0.05" arrival="278.00" arrivalLane="-849359570#2_0" arrivalPos="24.96" arrivalSpeed="8.62" duration="142.00" routeLength="925.32" waitingTime="25.00" waitingCount="2" stopTime="0.00" timeLoss="41.14" rerouteNo="0" devices="tripinfo_1252" vType="DEFAULT_VEHTYPE" speedFactor="1.03" vaporized=""/>
    <tripinfo id="919" depart="139.00" departLane="977104959#1_0" departPos="5.10" departSpeed="8.78" departDelay="0.26" arrival="278.00" arrivalLane="732154817#4_0" arrivalPos="29.73" arrivalSpeed="8.51" duration="139.00" routeLength="1009.68" waitingTime="0.00" waitingCount="0" stopTime="0.00" timeLoss="22.14" rerouteNo="0" devices="tripinfo_919" vType="DEFAULT_VEHTYPE" speedFactor="0.98" vaporized=""/>
    <tripinfo id="244" depart="12.00" departLane="537856043_0" departPos="0.64" departSpeed="0.00" departDelay="0.88" arrival="279.00" arrivalLane="38900541#4_1" arrivalPos="28.49" arrivalSpeed="9.49" duration="267.00" routeLength="1872.35" waitingTime="27.00" waitingCount="4" stopTime="0.00" timeLoss="71.69" rerouteNo="0" devices="tripinfo_244" vType="DEFAULT_VEHTYPE" speedFactor="1.08" vaporized=""/>
    <tripinfo id="1444" depart="52.00" departLane="38900541#4_0" departPos="5.10" departSpeed="7.80" departDelay="0.67" arrival="282.00" arrivalLane="732154817#4_0" arrivalPos="29.73" arrivalSpeed="6.79" duration="230.00" routeLength="1196.53" waitingTime="41.00" waitingCount="6" stopTime="0.00" timeLoss="74.87" rerouteNo="0" devices="tripinfo_1444" vType="DEFAULT_VEHTYPE" speedFactor="0.87" vaporized=""/>
    <tripinfo id="282" depart="3.00" departLane="4223971#2_0" departPos="5.10" departSpeed="8.39" departDelay="0.17" arrival="286.00" arrivalLane="732154817#4_0" arrivalPos="29.73" arrivalSpeed="8.11" duration="283.00" routeLength="1516.42" waitingTime="66.00" waitingCount="3" stopTime="0.00" timeLoss="99.02" rerouteNo="0" devices="tripinfo_282" vType="DEFAULT_VEHTYPE" speedFactor="0.94" vaporized=""/>
    <tripinfo id="366" depart="108.00" departLane="405576227_0" departPos="0.20" departSpeed="9.08" departDelay="0.07" arrival="287.00" arrivalLane="977104959#1_0" arrivalPos="55.51" arrivalSpeed="8.32" duration="179.00" routeLength="1172.32" waitingTime="23.00" waitingCount="3" stopTime="0.00" timeLoss="49.54" rerouteNo="0" devices="tripinfo_366" vType="DEFAULT_VEHTYPE" speedFactor="1.02" vaporized=""/>
    <tripinfo id="128" depart="117.00" departLane="732154817#4_0" departPos="5.10" departSpeed="9.30" departDelay="0.41" arrival="287.00" arrivalLane="-4254213#3_0" arrivalPos="19.14" arrivalSpeed="8.96" duration="170.00" routeLength="1279.17" waitingTime="10.00" waitingCount="1" stopTime="0.00" timeLoss="29.96" rerouteNo="0" devices="tripinfo_128" vType="DEFAULT_VEHTYPE" speedFactor="1.04" vaporized=""/>
    <tripinfo id="1842" depart="155.00" departLane="4223961#4_0" departPos="5.10" departSpeed="8.64" departDelay="0.43" arrival="295.00" arrivalLane="468181430#2_1" arrivalPos="24.92" arrivalSpeed="8.50" duration="140.00" routeLength="978.78" waitingTime="2.00" waitingCount="2" stopTime="0.00" timeLoss="24.16" rerouteNo="0" devices="tripinfo_1842" vType="DEFAULT_VEHTYPE" speedFactor="0.97" vaporized=""/>
    <tripinfo id="19" depart="164.00" departLane="3076785#8_0" departPos="5.10" departSpeed="9.32" departDelay="0.98" arrival="299.00" arrivalLane="405576227_1" arrivalPos="0.20" arrivalSpeed="9.08" duration="135.00" routeLength="1072.03" waitingTime="0.00" waitingCount="0" stopTime="0.00" timeLoss="17.20" rerouteNo="0" devices="tripinfo_19" vType="DEFAULT_VEHTYPE" speedFactor="1.04" vaporized=""/>
    <tripinfo id="502" depart="201.00" departLane="230192881#0_0" departPos="5.10" departSpeed="9.52" departDelay="0.57" arrival="302.00" arrivalLane="-1068540402#0_0" arrivalPos="43.71" arrivalSpeed="8.65" duration="101.00" routeLength="410.58" waitingTime="44.00" waitingCount="3" stopTime="0.00" timeLoss="57.29" rerouteNo="0" devices="tripinfo_502" vType="DEFAULT_VEHTYPE" speedFactor="1.06" vaporized=""/>
    <tripinfo id="828" depart="89.00" departLane="468181430#2_0" departPos="5.10" departSpeed="8.92" departDelay="0.12" arrival="306.00" arrivalLane="4260217#1_0" arrivalPos="11.14" arrivalSpeed="8.87" duration="217.00" routeLength="1440.15" waitingTime="25.00" waitingCount="2" stopTime="0.00" timeLoss="55.15" rerouteNo="0" devices="tripinfo_828" vType="DEFAULT_VEHTYPE" speedFactor="1.00" vaporized=""/>
    <tripinfo id="1202" depart="105.00" departLane="977104959#1_0" departPos="5.10" departSpeed="9.15" departDelay="0.44" arrival="306.00" arrivalLane="38900541#4_0" arrivalPos="28.49" arrivalSpeed="7.90" duration="201.00" routeLength="1081.87" waitingTime="52.00" waitingCount="5" stopTime="0.00" timeLoss="80.92" rerouteNo="0" devices="tripinfo_1202" vType="DEFAULT_VEHTYPE" speedFactor="1.02" vaporized=""/>
    <tripinfo id="1335" depart="109.00" departLane="977104959#1_0" departPos="5.10" departSpeed="8.38" departDelay="0.24" arrival="306.00" arrivalLane="4223961#4_0" arrivalPos="35.73" arrivalSpeed="7.91" duration="197.00" routeLength="1090.31" waitingTime="38.00" waitingCount="3" stopTime="0.00" timeLoss="64.34" rerouteNo="0" devices="tripinfo_1335" vType="DEFAULT_VEHTYPE" speedFactor="0.94" vaporized=""/>
    <tripinfo id="1395" depart="23.00" departLane="732154817#4_0" departPos="5.10" departSpeed="9.75" departDelay="0.18" arrival="308.00" arrivalLane="4260217#1_0" arrivalPos="11.14" arrivalSpeed="9.63" duration="285.00" routeLength="1675.02" waitingTime="55.00" waitingCount="4" stopTime="0.00" timeLoss="112.58" rerouteNo="0" devices="tripinfo_1395" vType="DEFAULT_VEHTYPE" speedFactor="1.09" vaporized=""/>
    <tripinfo id="566" depart="168.00" departLane="4223971#2_0" departPos="5.10" departSpeed="8.41" departDelay="0.24" arrival="309.00" arrivalLane="977104959#1_0" arrivalPos="55.51" arrivalSpeed="8.36" duration="141.00" routeLength="904.35" waitingTime="5.00" waitingCount="3" stopTime="0.00" timeLoss="39.20" rerouteNo="0" devices="tripinfo_566" vType="DEFAULT_VEHTYPE" speedFactor="1.01" vaporized=""/>
    <tripinfo id="63" depart="1.00" departLane="3076785#8_0" departPos="5.10" departSpeed="9.48" departDelay="0.21" arrival="315.00" arrivalLane="4223971#2_0" arrivalPos="17.43" arrivalSpeed="8.60" duration="314.00" routeLength="1982.49" waitingTime="57.00" waitingCount="5" stopTime="0.00" timeLoss="101.24" rerouteNo="0" devices="tripinfo_63" vType="DEFAULT_VEHTYPE" speedFactor="1.06" vaporized=""/>
    <tripinfo id="222" depart="102.00" departLane="537856043_0" departPos="0.64" departSpeed="6.59" departDelay="0.57" arrival="315.00" arrivalLane="4223961#4_0" arrivalPos="35.73" arrivalSpeed="7.74" duration="213.00" routeLength="1241.23" waitingTime="45.00" waitingCount="5" stopTime="0.00" timeLoss="73.30" rerouteNo="0" devices="tripinfo_222" vType="DEFAULT_VEHTYPE" speedFactor="1.00" vaporized=""/>
    <tripinfo id="136" depart="180.00" departLane="3076785#8_0" departPos="5.10" departSpeed="8.24" departDelay="0.48" arrival="315.00" arrivalLane="732154817#4_0" arrivalPos="29.73" arrivalSpeed="7.86" duration="135.00" routeLength="939.60" waitingTime="4.00" waitingCount="1" stopTime="0.00" timeLoss="19.01" rerouteNo="0" devices="tripinfo_136" vType="DEFAULT_VEHTYPE" speedFactor="0.92" vaporized=""/>
    <tripinfo id="961" depart="306.00" departLane="977104959#1_0" departPos="5.10" departSpeed="6.98" departDelay="3.37" arrival="315.00" arrivalLane="977104959#1_0" arrivalPos="55.51" arrivalSpeed="7.27" duration="9.00" routeLength="50.41" waitingTime="0.00" waitingCount="0" stopTime="0.00" timeLoss="2.54" rerouteNo="0" devices="tripinfo_961" vType="DEFAULT_VEHTYPE" speedFactor="0.99" vaporized=""/>
    <tripinfo id="518" depart="5.00" departLane="405576227_0" departPos="0.20" departSpeed="9.03" departDelay="0.23" arrival="318.00" arrivalLane="-4254213#3_0" arrivalPos="19.14" arrivalSpeed="8.86" duration="313.00" routeLength="2408.46" waitingTime="6.00" waitingCount="3" stopTime="0.00" timeLoss="44.38" rerouteNo="0" devices="tripinfo_518" vType="DEFAULT_VEHTYPE" speedFactor="1.01" vaporized=""/>
    <tripinfo id="1906" depart="184.00" departLane="-849359570#2_0" departPos="5.10" departSpeed="9.45" departDelay="0.79" arrival="323.00" arrivalLane="405576227_1" arrivalPos="0.20" arrivalSpeed="3.08" duration="139.00" routeLength="1018.49" waitingTime="5.00" waitingCount="3" stopTime="0.00" timeLoss="29.65" rerouteNo="0" devices="tripinfo_1906" vType="DEFAULT_VEHTYPE" speedFactor="1.06" vaporized=""/>
    <tripinfo id="62" depart="208.00" departLane="977104959#1_0" departPos="5.10" departSpeed="8.66" departDelay="0.28" arrival="323.00" arrivalLane="230192881#0_0" arrivalPos="38.16" arrivalSpeed="7.81" duration="115.00" routeLength="756.20" waitingTime="7.00" waitingCount="2" stopTime="0.00" timeLoss="25.45" rerouteNo="0" devices="tripinfo_62" vType="DEFAULT_VEHTYPE" speedFactor="0.97" vaporized=""/>
    <tripinfo id="771" depart="48.00" departLane="468181430#2_0" departPos="5.10" departSpeed="7.95" departDelay="0.05" arrival="324.00" arrivalLane="4260217#1_0" arrivalPos="11.14" arrivalSpeed="7.89" duration="276.00" routeLength="1693.16" waitingTime="23.00" waitingCount="4" stopTime="0.00" timeLoss="59.95" rerouteNo="0" devices="tripinfo_771" vType="DEFAULT_VEHTYPE" speedFactor="0.89" vaporized=""/>
    <tripinfo id="1290" depart="308.00" departLane="-1068540402#0_0" departPos="5.10" departSpeed="8.80" departDelay="0.64" arrival="324.00" arrivalLane="38900541#4_1" arrivalPos="28.49" arrivalSpeed="7.60" duration="16.00" routeLength="105.32" waitingTime="0.00" waitingCount="0" stopTime="0.00" timeLoss="2.75" rerouteNo="0" devices="tripinfo_1290" vType="DEFAULT_VEHTYPE" speedFactor="0.98" vaporized=""/>
    <tripinfo id="1757" depart="111.00" departLane="4260217#1_0" departPos="5.10" departSpeed="0.57" departDelay="5.76" arrival="325.00" arrivalLane="230192881#0_0" arrivalPos="38.16" arrivalSpeed="9.29" duration="214.00" routeLength="1313.56" waitingTime="44.00" waitingCount="2" stopTime="0.00" timeLoss="76.47" rerouteNo="0" devices="tripinfo_1757" vType="DEFAULT_VEHTYPE" speedFactor="1.08" vaporized=""/>
    <tripinfo id="1597" depart="22.00" departLane="4223961#4_0" departPos="5.10" departSpeed="7.66" departDelay="0.24" arrival="328.00" arrivalLane="732154817#4_0" arrivalPos="29.73" arrivalSpeed="7.49" duration="306.00" routeLength="1772.41" waitingTime="21.00" waitingCount="3" stopTime="0.00" timeLoss="70.58" rerouteNo="0" devices="tripinfo_1597" vType="DEFAULT_VEHTYPE" speedFactor="0.86" vaporized=""/>
    <tripinfo id="1942" depart="284.00" departLane="4223961#4_0" departPos="5.10" departSpeed="10.04" departDelay="0.20" arrival="329.00" arrivalLane="4223971#2_0" arrivalPos="17.43" arrivalSpeed="9.58" duration="45.00" routeLength="389.89" waitingTime="0.00" waitingCount="0" stopTime="0.00" timeLoss="4.61" rerouteNo="0" devices="tripinfo_1942" vType="DEFAULT_VEHTYPE" speedFactor="1.12" vaporized=""/>
    <tripinfo id="1512" depart="129.00" departLane="-849359570#2_0" departPos="5.10" departSpeed="8.81" departDelay="0.39" arrival="330.00" arrivalLane="732154817#4_0" arrivalPos="29.73" arrivalSpeed="8.56" duration="201.00" routeLength="983.41" waitingTime="59.00" waitingCount="5" stopTime="0.00" timeLoss="86.71" rerouteNo="0" devices="tripinfo_1512" vType="DEFAULT_VEHTYPE" speedFactor="0.98" vaporized=""/>
    <tripinfo id="1742" depart="228.00" departLane="-849359570#2_0" departPos="5.10" departSpeed="4.59" departDelay="0.58" arrival="331.00" arrivalLane="230192881#0_0" arrivalPos="38.16" arrivalSpeed="9.20" duration="103.00" routeLength="580.50" waitingTime="24.00" waitingCount="2" stopTime="0.00" timeLoss="42.39" rerouteNo="0" devices="tripinfo_1742" vType="DEFAULT_VEHTYPE" speedFactor="1.10" vaporized=""/>